+ 1 3 0 cbr 512 ------- 0 3.0 5.0 0 0
- 1 3 0 cbr 512 ------- 0 3.0 5.0 0 0
r 1.00541 3 0 cbr 512 ------- 0 3.0 5.0 0 0
+ 1.00541 0 1 cbr 512 ------- 0 3.0 5.0 0 0
- 1.00541 0 1 cbr 512 ------- 0 3.0 5.0 0 0
r 1.010819 0 1 cbr 512 ------- 0 3.0 5.0 0 0
+ 1.010819 1 5 cbr 512 ------- 0 3.0 5.0 0 0
- 1.010819 1 5 cbr 512 ------- 0 3.0 5.0 0 0
r 1.016229 1 5 cbr 512 ------- 0 3.0 5.0 0 0
+ 1.02048 3 0 cbr 512 ------- 0 3.0 5.0 1 1
- 1.02048 3 0 cbr 512 ------- 0 3.0 5.0 1 1
r 1.02589 3 0 cbr 512 ------- 0 3.0 5.0 1 1
+ 1.02589 0 1 cbr 512 ------- 0 3.0 5.0 1 1
- 1.02589 0 1 cbr 512 ------- 0 3.0 5.0 1 1
r 1.031299 0 1 cbr 512 ------- 0 3.0 5.0 1 1
+ 1.031299 1 5 cbr 512 ------- 0 3.0 5.0 1 1
- 1.031299 1 5 cbr 512 ------- 0 3.0 5.0 1 1
r 1.036709 1 5 cbr 512 ------- 0 3.0 5.0 1 1
+ 1.04096 3 0 cbr 512 ------- 0 3.0 5.0 2 2
- 1.04096 3 0 cbr 512 ------- 0 3.0 5.0 2 2
r 1.04637 3 0 cbr 512 ------- 0 3.0 5.0 2 2
+ 1.04637 0 1 cbr 512 ------- 0 3.0 5.0 2 2
- 1.04637 0 1 cbr 512 ------- 0 3.0 5.0 2 2
r 1.051779 0 1 cbr 512 ------- 0 3.0 5.0 2 2
+ 1.051779 1 5 cbr 512 ------- 0 3.0 5.0 2 2
- 1.051779 1 5 cbr 512 ------- 0 3.0 5.0 2 2
r 1.057189 1 5 cbr 512 ------- 0 3.0 5.0 2 2
+ 1.06144 3 0 cbr 512 ------- 0 3.0 5.0 3 3
- 1.06144 3 0 cbr 512 ------- 0 3.0 5.0 3 3
r 1.06685 3 0 cbr 512 ------- 0 3.0 5.0 3 3
+ 1.06685 0 1 cbr 512 ------- 0 3.0 5.0 3 3
- 1.06685 0 1 cbr 512 ------- 0 3.0 5.0 3 3
r 1.072259 0 1 cbr 512 ------- 0 3.0 5.0 3 3
+ 1.072259 1 5 cbr 512 ------- 0 3.0 5.0 3 3
- 1.072259 1 5 cbr 512 ------- 0 3.0 5.0 3 3
r 1.077669 1 5 cbr 512 ------- 0 3.0 5.0 3 3
+ 1.08192 3 0 cbr 512 ------- 0 3.0 5.0 4 4
- 1.08192 3 0 cbr 512 ------- 0 3.0 5.0 4 4
r 1.08733 3 0 cbr 512 ------- 0 3.0 5.0 4 4
+ 1.08733 0 1 cbr 512 ------- 0 3.0 5.0 4 4
- 1.08733 0 1 cbr 512 ------- 0 3.0 5.0 4 4
r 1.092739 0 1 cbr 512 ------- 0 3.0 5.0 4 4
+ 1.092739 1 5 cbr 512 ------- 0 3.0 5.0 4 4
- 1.092739 1 5 cbr 512 ------- 0 3.0 5.0 4 4
r 1.098149 1 5 cbr 512 ------- 0 3.0 5.0 4 4
+ 1.1024 3 0 cbr 512 ------- 0 3.0 5.0 5 5
- 1.1024 3 0 cbr 512 ------- 0 3.0 5.0 5 5
r 1.10781 3 0 cbr 512 ------- 0 3.0 5.0 5 5
+ 1.10781 0 1 cbr 512 ------- 0 3.0 5.0 5 5
- 1.10781 0 1 cbr 512 ------- 0 3.0 5.0 5 5
r 1.113219 0 1 cbr 512 ------- 0 3.0 5.0 5 5
+ 1.113219 1 5 cbr 512 ------- 0 3.0 5.0 5 5
- 1.113219 1 5 cbr 512 ------- 0 3.0 5.0 5 5
r 1.118629 1 5 cbr 512 ------- 0 3.0 5.0 5 5
+ 1.12288 3 0 cbr 512 ------- 0 3.0 5.0 6 6
- 1.12288 3 0 cbr 512 ------- 0 3.0 5.0 6 6
r 1.12829 3 0 cbr 512 ------- 0 3.0 5.0 6 6
+ 1.12829 0 1 cbr 512 ------- 0 3.0 5.0 6 6
- 1.12829 0 1 cbr 512 ------- 0 3.0 5.0 6 6
r 1.133699 0 1 cbr 512 ------- 0 3.0 5.0 6 6
+ 1.133699 1 5 cbr 512 ------- 0 3.0 5.0 6 6
- 1.133699 1 5 cbr 512 ------- 0 3.0 5.0 6 6
r 1.139109 1 5 cbr 512 ------- 0 3.0 5.0 6 6
+ 1.14336 3 0 cbr 512 ------- 0 3.0 5.0 7 7
- 1.14336 3 0 cbr 512 ------- 0 3.0 5.0 7 7
r 1.14877 3 0 cbr 512 ------- 0 3.0 5.0 7 7
+ 1.14877 0 1 cbr 512 ------- 0 3.0 5.0 7 7
- 1.14877 0 1 cbr 512 ------- 0 3.0 5.0 7 7
r 1.154179 0 1 cbr 512 ------- 0 3.0 5.0 7 7
+ 1.154179 1 5 cbr 512 ------- 0 3.0 5.0 7 7
- 1.154179 1 5 cbr 512 ------- 0 3.0 5.0 7 7
r 1.159589 1 5 cbr 512 ------- 0 3.0 5.0 7 7
+ 1.16384 3 0 cbr 512 ------- 0 3.0 5.0 8 8
- 1.16384 3 0 cbr 512 ------- 0 3.0 5.0 8 8
r 1.16925 3 0 cbr 512 ------- 0 3.0 5.0 8 8
+ 1.16925 0 1 cbr 512 ------- 0 3.0 5.0 8 8
- 1.16925 0 1 cbr 512 ------- 0 3.0 5.0 8 8
r 1.174659 0 1 cbr 512 ------- 0 3.0 5.0 8 8
+ 1.174659 1 5 cbr 512 ------- 0 3.0 5.0 8 8
- 1.174659 1 5 cbr 512 ------- 0 3.0 5.0 8 8
r 1.180069 1 5 cbr 512 ------- 0 3.0 5.0 8 8
+ 1.18432 3 0 cbr 512 ------- 0 3.0 5.0 9 9
- 1.18432 3 0 cbr 512 ------- 0 3.0 5.0 9 9
r 1.18973 3 0 cbr 512 ------- 0 3.0 5.0 9 9
+ 1.18973 0 1 cbr 512 ------- 0 3.0 5.0 9 9
- 1.18973 0 1 cbr 512 ------- 0 3.0 5.0 9 9
r 1.195139 0 1 cbr 512 ------- 0 3.0 5.0 9 9
+ 1.195139 1 5 cbr 512 ------- 0 3.0 5.0 9 9
- 1.195139 1 5 cbr 512 ------- 0 3.0 5.0 9 9
r 1.200549 1 5 cbr 512 ------- 0 3.0 5.0 9 9
+ 1.2048 3 0 cbr 512 ------- 0 3.0 5.0 10 10
- 1.2048 3 0 cbr 512 ------- 0 3.0 5.0 10 10
r 1.21021 3 0 cbr 512 ------- 0 3.0 5.0 10 10
+ 1.21021 0 1 cbr 512 ------- 0 3.0 5.0 10 10
- 1.21021 0 1 cbr 512 ------- 0 3.0 5.0 10 10
r 1.215619 0 1 cbr 512 ------- 0 3.0 5.0 10 10
+ 1.215619 1 5 cbr 512 ------- 0 3.0 5.0 10 10
- 1.215619 1 5 cbr 512 ------- 0 3.0 5.0 10 10
r 1.221029 1 5 cbr 512 ------- 0 3.0 5.0 10 10
+ 1.22528 3 0 cbr 512 ------- 0 3.0 5.0 11 11
- 1.22528 3 0 cbr 512 ------- 0 3.0 5.0 11 11
r 1.23069 3 0 cbr 512 ------- 0 3.0 5.0 11 11
+ 1.23069 0 1 cbr 512 ------- 0 3.0 5.0 11 11
- 1.23069 0 1 cbr 512 ------- 0 3.0 5.0 11 11
r 1.236099 0 1 cbr 512 ------- 0 3.0 5.0 11 11
+ 1.236099 1 5 cbr 512 ------- 0 3.0 5.0 11 11
- 1.236099 1 5 cbr 512 ------- 0 3.0 5.0 11 11
r 1.241509 1 5 cbr 512 ------- 0 3.0 5.0 11 11
+ 1.24576 3 0 cbr 512 ------- 0 3.0 5.0 12 12
- 1.24576 3 0 cbr 512 ------- 0 3.0 5.0 12 12
r 1.25117 3 0 cbr 512 ------- 0 3.0 5.0 12 12
+ 1.25117 0 1 cbr 512 ------- 0 3.0 5.0 12 12
- 1.25117 0 1 cbr 512 ------- 0 3.0 5.0 12 12
r 1.256579 0 1 cbr 512 ------- 0 3.0 5.0 12 12
+ 1.256579 1 5 cbr 512 ------- 0 3.0 5.0 12 12
- 1.256579 1 5 cbr 512 ------- 0 3.0 5.0 12 12
r 1.261989 1 5 cbr 512 ------- 0 3.0 5.0 12 12
+ 1.26624 3 0 cbr 512 ------- 0 3.0 5.0 13 13
- 1.26624 3 0 cbr 512 ------- 0 3.0 5.0 13 13
r 1.27165 3 0 cbr 512 ------- 0 3.0 5.0 13 13
+ 1.27165 0 1 cbr 512 ------- 0 3.0 5.0 13 13
- 1.27165 0 1 cbr 512 ------- 0 3.0 5.0 13 13
r 1.277059 0 1 cbr 512 ------- 0 3.0 5.0 13 13
+ 1.277059 1 5 cbr 512 ------- 0 3.0 5.0 13 13
- 1.277059 1 5 cbr 512 ------- 0 3.0 5.0 13 13
r 1.282469 1 5 cbr 512 ------- 0 3.0 5.0 13 13
+ 1.28672 3 0 cbr 512 ------- 0 3.0 5.0 14 14
- 1.28672 3 0 cbr 512 ------- 0 3.0 5.0 14 14
r 1.29213 3 0 cbr 512 ------- 0 3.0 5.0 14 14
+ 1.29213 0 1 cbr 512 ------- 0 3.0 5.0 14 14
- 1.29213 0 1 cbr 512 ------- 0 3.0 5.0 14 14
r 1.297539 0 1 cbr 512 ------- 0 3.0 5.0 14 14
+ 1.297539 1 5 cbr 512 ------- 0 3.0 5.0 14 14
- 1.297539 1 5 cbr 512 ------- 0 3.0 5.0 14 14
r 1.302949 1 5 cbr 512 ------- 0 3.0 5.0 14 14
+ 1.3072 3 0 cbr 512 ------- 0 3.0 5.0 15 15
- 1.3072 3 0 cbr 512 ------- 0 3.0 5.0 15 15
r 1.31261 3 0 cbr 512 ------- 0 3.0 5.0 15 15
+ 1.31261 0 1 cbr 512 ------- 0 3.0 5.0 15 15
- 1.31261 0 1 cbr 512 ------- 0 3.0 5.0 15 15
r 1.318019 0 1 cbr 512 ------- 0 3.0 5.0 15 15
+ 1.318019 1 5 cbr 512 ------- 0 3.0 5.0 15 15
- 1.318019 1 5 cbr 512 ------- 0 3.0 5.0 15 15
r 1.323429 1 5 cbr 512 ------- 0 3.0 5.0 15 15
+ 1.32768 3 0 cbr 512 ------- 0 3.0 5.0 16 16
- 1.32768 3 0 cbr 512 ------- 0 3.0 5.0 16 16
r 1.33309 3 0 cbr 512 ------- 0 3.0 5.0 16 16
+ 1.33309 0 1 cbr 512 ------- 0 3.0 5.0 16 16
- 1.33309 0 1 cbr 512 ------- 0 3.0 5.0 16 16
r 1.338499 0 1 cbr 512 ------- 0 3.0 5.0 16 16
+ 1.338499 1 5 cbr 512 ------- 0 3.0 5.0 16 16
- 1.338499 1 5 cbr 512 ------- 0 3.0 5.0 16 16
r 1.343909 1 5 cbr 512 ------- 0 3.0 5.0 16 16
+ 1.34816 3 0 cbr 512 ------- 0 3.0 5.0 17 17
- 1.34816 3 0 cbr 512 ------- 0 3.0 5.0 17 17
r 1.35357 3 0 cbr 512 ------- 0 3.0 5.0 17 17
+ 1.35357 0 1 cbr 512 ------- 0 3.0 5.0 17 17
- 1.35357 0 1 cbr 512 ------- 0 3.0 5.0 17 17
r 1.358979 0 1 cbr 512 ------- 0 3.0 5.0 17 17
+ 1.358979 1 5 cbr 512 ------- 0 3.0 5.0 17 17
- 1.358979 1 5 cbr 512 ------- 0 3.0 5.0 17 17
r 1.364389 1 5 cbr 512 ------- 0 3.0 5.0 17 17
+ 1.36864 3 0 cbr 512 ------- 0 3.0 5.0 18 18
- 1.36864 3 0 cbr 512 ------- 0 3.0 5.0 18 18
r 1.37405 3 0 cbr 512 ------- 0 3.0 5.0 18 18
+ 1.37405 0 1 cbr 512 ------- 0 3.0 5.0 18 18
- 1.37405 0 1 cbr 512 ------- 0 3.0 5.0 18 18
r 1.379459 0 1 cbr 512 ------- 0 3.0 5.0 18 18
+ 1.379459 1 5 cbr 512 ------- 0 3.0 5.0 18 18
- 1.379459 1 5 cbr 512 ------- 0 3.0 5.0 18 18
r 1.384869 1 5 cbr 512 ------- 0 3.0 5.0 18 18
+ 1.38912 3 0 cbr 512 ------- 0 3.0 5.0 19 19
- 1.38912 3 0 cbr 512 ------- 0 3.0 5.0 19 19
r 1.39453 3 0 cbr 512 ------- 0 3.0 5.0 19 19
+ 1.39453 0 1 cbr 512 ------- 0 3.0 5.0 19 19
- 1.39453 0 1 cbr 512 ------- 0 3.0 5.0 19 19
r 1.399939 0 1 cbr 512 ------- 0 3.0 5.0 19 19
+ 1.399939 1 5 cbr 512 ------- 0 3.0 5.0 19 19
- 1.399939 1 5 cbr 512 ------- 0 3.0 5.0 19 19
r 1.405349 1 5 cbr 512 ------- 0 3.0 5.0 19 19
+ 1.4096 3 0 cbr 512 ------- 0 3.0 5.0 20 20
- 1.4096 3 0 cbr 512 ------- 0 3.0 5.0 20 20
r 1.41501 3 0 cbr 512 ------- 0 3.0 5.0 20 20
+ 1.41501 0 1 cbr 512 ------- 0 3.0 5.0 20 20
- 1.41501 0 1 cbr 512 ------- 0 3.0 5.0 20 20
r 1.420419 0 1 cbr 512 ------- 0 3.0 5.0 20 20
+ 1.420419 1 5 cbr 512 ------- 0 3.0 5.0 20 20
- 1.420419 1 5 cbr 512 ------- 0 3.0 5.0 20 20
r 1.425829 1 5 cbr 512 ------- 0 3.0 5.0 20 20
+ 1.43008 3 0 cbr 512 ------- 0 3.0 5.0 21 21
- 1.43008 3 0 cbr 512 ------- 0 3.0 5.0 21 21
r 1.43549 3 0 cbr 512 ------- 0 3.0 5.0 21 21
+ 1.43549 0 1 cbr 512 ------- 0 3.0 5.0 21 21
- 1.43549 0 1 cbr 512 ------- 0 3.0 5.0 21 21
r 1.440899 0 1 cbr 512 ------- 0 3.0 5.0 21 21
+ 1.440899 1 5 cbr 512 ------- 0 3.0 5.0 21 21
- 1.440899 1 5 cbr 512 ------- 0 3.0 5.0 21 21
r 1.446309 1 5 cbr 512 ------- 0 3.0 5.0 21 21
+ 1.45056 3 0 cbr 512 ------- 0 3.0 5.0 22 22
- 1.45056 3 0 cbr 512 ------- 0 3.0 5.0 22 22
r 1.45597 3 0 cbr 512 ------- 0 3.0 5.0 22 22
+ 1.45597 0 1 cbr 512 ------- 0 3.0 5.0 22 22
- 1.45597 0 1 cbr 512 ------- 0 3.0 5.0 22 22
r 1.461379 0 1 cbr 512 ------- 0 3.0 5.0 22 22
+ 1.461379 1 5 cbr 512 ------- 0 3.0 5.0 22 22
- 1.461379 1 5 cbr 512 ------- 0 3.0 5.0 22 22
r 1.466789 1 5 cbr 512 ------- 0 3.0 5.0 22 22
+ 1.47104 3 0 cbr 512 ------- 0 3.0 5.0 23 23
- 1.47104 3 0 cbr 512 ------- 0 3.0 5.0 23 23
r 1.47645 3 0 cbr 512 ------- 0 3.0 5.0 23 23
+ 1.47645 0 1 cbr 512 ------- 0 3.0 5.0 23 23
- 1.47645 0 1 cbr 512 ------- 0 3.0 5.0 23 23
r 1.481859 0 1 cbr 512 ------- 0 3.0 5.0 23 23
+ 1.481859 1 5 cbr 512 ------- 0 3.0 5.0 23 23
- 1.481859 1 5 cbr 512 ------- 0 3.0 5.0 23 23
r 1.487269 1 5 cbr 512 ------- 0 3.0 5.0 23 23
+ 1.49152 3 0 cbr 512 ------- 0 3.0 5.0 24 24
- 1.49152 3 0 cbr 512 ------- 0 3.0 5.0 24 24
r 1.49693 3 0 cbr 512 ------- 0 3.0 5.0 24 24
+ 1.49693 0 1 cbr 512 ------- 0 3.0 5.0 24 24
- 1.49693 0 1 cbr 512 ------- 0 3.0 5.0 24 24
r 1.502339 0 1 cbr 512 ------- 0 3.0 5.0 24 24
+ 1.502339 1 5 cbr 512 ------- 0 3.0 5.0 24 24
- 1.502339 1 5 cbr 512 ------- 0 3.0 5.0 24 24
r 1.507749 1 5 cbr 512 ------- 0 3.0 5.0 24 24
+ 1.512 3 0 cbr 512 ------- 0 3.0 5.0 25 25
- 1.512 3 0 cbr 512 ------- 0 3.0 5.0 25 25
r 1.51741 3 0 cbr 512 ------- 0 3.0 5.0 25 25
+ 1.51741 0 1 cbr 512 ------- 0 3.0 5.0 25 25
- 1.51741 0 1 cbr 512 ------- 0 3.0 5.0 25 25
r 1.522819 0 1 cbr 512 ------- 0 3.0 5.0 25 25
+ 1.522819 1 5 cbr 512 ------- 0 3.0 5.0 25 25
- 1.522819 1 5 cbr 512 ------- 0 3.0 5.0 25 25
r 1.528229 1 5 cbr 512 ------- 0 3.0 5.0 25 25
+ 1.53248 3 0 cbr 512 ------- 0 3.0 5.0 26 26
- 1.53248 3 0 cbr 512 ------- 0 3.0 5.0 26 26
r 1.53789 3 0 cbr 512 ------- 0 3.0 5.0 26 26
+ 1.53789 0 1 cbr 512 ------- 0 3.0 5.0 26 26
- 1.53789 0 1 cbr 512 ------- 0 3.0 5.0 26 26
r 1.543299 0 1 cbr 512 ------- 0 3.0 5.0 26 26
+ 1.543299 1 5 cbr 512 ------- 0 3.0 5.0 26 26
- 1.543299 1 5 cbr 512 ------- 0 3.0 5.0 26 26
r 1.548709 1 5 cbr 512 ------- 0 3.0 5.0 26 26
+ 1.55296 3 0 cbr 512 ------- 0 3.0 5.0 27 27
- 1.55296 3 0 cbr 512 ------- 0 3.0 5.0 27 27
r 1.55837 3 0 cbr 512 ------- 0 3.0 5.0 27 27
+ 1.55837 0 1 cbr 512 ------- 0 3.0 5.0 27 27
- 1.55837 0 1 cbr 512 ------- 0 3.0 5.0 27 27
r 1.563779 0 1 cbr 512 ------- 0 3.0 5.0 27 27
+ 1.563779 1 5 cbr 512 ------- 0 3.0 5.0 27 27
- 1.563779 1 5 cbr 512 ------- 0 3.0 5.0 27 27
r 1.569189 1 5 cbr 512 ------- 0 3.0 5.0 27 27
+ 1.57344 3 0 cbr 512 ------- 0 3.0 5.0 28 28
- 1.57344 3 0 cbr 512 ------- 0 3.0 5.0 28 28
r 1.57885 3 0 cbr 512 ------- 0 3.0 5.0 28 28
+ 1.57885 0 1 cbr 512 ------- 0 3.0 5.0 28 28
- 1.57885 0 1 cbr 512 ------- 0 3.0 5.0 28 28
r 1.584259 0 1 cbr 512 ------- 0 3.0 5.0 28 28
+ 1.584259 1 5 cbr 512 ------- 0 3.0 5.0 28 28
- 1.584259 1 5 cbr 512 ------- 0 3.0 5.0 28 28
r 1.589669 1 5 cbr 512 ------- 0 3.0 5.0 28 28
+ 1.59392 3 0 cbr 512 ------- 0 3.0 5.0 29 29
- 1.59392 3 0 cbr 512 ------- 0 3.0 5.0 29 29
r 1.59933 3 0 cbr 512 ------- 0 3.0 5.0 29 29
+ 1.59933 0 1 cbr 512 ------- 0 3.0 5.0 29 29
- 1.59933 0 1 cbr 512 ------- 0 3.0 5.0 29 29
r 1.604739 0 1 cbr 512 ------- 0 3.0 5.0 29 29
+ 1.604739 1 5 cbr 512 ------- 0 3.0 5.0 29 29
- 1.604739 1 5 cbr 512 ------- 0 3.0 5.0 29 29
r 1.610149 1 5 cbr 512 ------- 0 3.0 5.0 29 29
+ 1.6144 3 0 cbr 512 ------- 0 3.0 5.0 30 30
- 1.6144 3 0 cbr 512 ------- 0 3.0 5.0 30 30
r 1.61981 3 0 cbr 512 ------- 0 3.0 5.0 30 30
+ 1.61981 0 1 cbr 512 ------- 0 3.0 5.0 30 30
- 1.61981 0 1 cbr 512 ------- 0 3.0 5.0 30 30
r 1.625219 0 1 cbr 512 ------- 0 3.0 5.0 30 30
+ 1.625219 1 5 cbr 512 ------- 0 3.0 5.0 30 30
- 1.625219 1 5 cbr 512 ------- 0 3.0 5.0 30 30
r 1.630629 1 5 cbr 512 ------- 0 3.0 5.0 30 30
+ 1.63488 3 0 cbr 512 ------- 0 3.0 5.0 31 31
- 1.63488 3 0 cbr 512 ------- 0 3.0 5.0 31 31
r 1.64029 3 0 cbr 512 ------- 0 3.0 5.0 31 31
+ 1.64029 0 1 cbr 512 ------- 0 3.0 5.0 31 31
- 1.64029 0 1 cbr 512 ------- 0 3.0 5.0 31 31
r 1.645699 0 1 cbr 512 ------- 0 3.0 5.0 31 31
+ 1.645699 1 5 cbr 512 ------- 0 3.0 5.0 31 31
- 1.645699 1 5 cbr 512 ------- 0 3.0 5.0 31 31
r 1.651109 1 5 cbr 512 ------- 0 3.0 5.0 31 31
+ 1.65536 3 0 cbr 512 ------- 0 3.0 5.0 32 32
- 1.65536 3 0 cbr 512 ------- 0 3.0 5.0 32 32
r 1.66077 3 0 cbr 512 ------- 0 3.0 5.0 32 32
+ 1.66077 0 1 cbr 512 ------- 0 3.0 5.0 32 32
- 1.66077 0 1 cbr 512 ------- 0 3.0 5.0 32 32
r 1.666179 0 1 cbr 512 ------- 0 3.0 5.0 32 32
+ 1.666179 1 5 cbr 512 ------- 0 3.0 5.0 32 32
- 1.666179 1 5 cbr 512 ------- 0 3.0 5.0 32 32
r 1.671589 1 5 cbr 512 ------- 0 3.0 5.0 32 32
+ 1.67584 3 0 cbr 512 ------- 0 3.0 5.0 33 33
- 1.67584 3 0 cbr 512 ------- 0 3.0 5.0 33 33
r 1.68125 3 0 cbr 512 ------- 0 3.0 5.0 33 33
+ 1.68125 0 1 cbr 512 ------- 0 3.0 5.0 33 33
- 1.68125 0 1 cbr 512 ------- 0 3.0 5.0 33 33
r 1.686659 0 1 cbr 512 ------- 0 3.0 5.0 33 33
+ 1.686659 1 5 cbr 512 ------- 0 3.0 5.0 33 33
- 1.686659 1 5 cbr 512 ------- 0 3.0 5.0 33 33
r 1.692069 1 5 cbr 512 ------- 0 3.0 5.0 33 33
+ 1.69632 3 0 cbr 512 ------- 0 3.0 5.0 34 34
- 1.69632 3 0 cbr 512 ------- 0 3.0 5.0 34 34
r 1.70173 3 0 cbr 512 ------- 0 3.0 5.0 34 34
+ 1.70173 0 1 cbr 512 ------- 0 3.0 5.0 34 34
- 1.70173 0 1 cbr 512 ------- 0 3.0 5.0 34 34
r 1.707139 0 1 cbr 512 ------- 0 3.0 5.0 34 34
+ 1.707139 1 5 cbr 512 ------- 0 3.0 5.0 34 34
- 1.707139 1 5 cbr 512 ------- 0 3.0 5.0 34 34
r 1.712549 1 5 cbr 512 ------- 0 3.0 5.0 34 34
+ 1.7168 3 0 cbr 512 ------- 0 3.0 5.0 35 35
- 1.7168 3 0 cbr 512 ------- 0 3.0 5.0 35 35
r 1.72221 3 0 cbr 512 ------- 0 3.0 5.0 35 35
+ 1.72221 0 1 cbr 512 ------- 0 3.0 5.0 35 35
- 1.72221 0 1 cbr 512 ------- 0 3.0 5.0 35 35
r 1.727619 0 1 cbr 512 ------- 0 3.0 5.0 35 35
+ 1.727619 1 5 cbr 512 ------- 0 3.0 5.0 35 35
- 1.727619 1 5 cbr 512 ------- 0 3.0 5.0 35 35
r 1.733029 1 5 cbr 512 ------- 0 3.0 5.0 35 35
+ 1.73728 3 0 cbr 512 ------- 0 3.0 5.0 36 36
- 1.73728 3 0 cbr 512 ------- 0 3.0 5.0 36 36
r 1.74269 3 0 cbr 512 ------- 0 3.0 5.0 36 36
+ 1.74269 0 1 cbr 512 ------- 0 3.0 5.0 36 36
- 1.74269 0 1 cbr 512 ------- 0 3.0 5.0 36 36
r 1.748099 0 1 cbr 512 ------- 0 3.0 5.0 36 36
+ 1.748099 1 5 cbr 512 ------- 0 3.0 5.0 36 36
- 1.748099 1 5 cbr 512 ------- 0 3.0 5.0 36 36
r 1.753509 1 5 cbr 512 ------- 0 3.0 5.0 36 36
+ 1.75776 3 0 cbr 512 ------- 0 3.0 5.0 37 37
- 1.75776 3 0 cbr 512 ------- 0 3.0 5.0 37 37
r 1.76317 3 0 cbr 512 ------- 0 3.0 5.0 37 37
+ 1.76317 0 1 cbr 512 ------- 0 3.0 5.0 37 37
- 1.76317 0 1 cbr 512 ------- 0 3.0 5.0 37 37
r 1.768579 0 1 cbr 512 ------- 0 3.0 5.0 37 37
+ 1.768579 1 5 cbr 512 ------- 0 3.0 5.0 37 37
- 1.768579 1 5 cbr 512 ------- 0 3.0 5.0 37 37
r 1.773989 1 5 cbr 512 ------- 0 3.0 5.0 37 37
+ 1.77824 3 0 cbr 512 ------- 0 3.0 5.0 38 38
- 1.77824 3 0 cbr 512 ------- 0 3.0 5.0 38 38
r 1.78365 3 0 cbr 512 ------- 0 3.0 5.0 38 38
+ 1.78365 0 1 cbr 512 ------- 0 3.0 5.0 38 38
- 1.78365 0 1 cbr 512 ------- 0 3.0 5.0 38 38
r 1.789059 0 1 cbr 512 ------- 0 3.0 5.0 38 38
+ 1.789059 1 5 cbr 512 ------- 0 3.0 5.0 38 38
- 1.789059 1 5 cbr 512 ------- 0 3.0 5.0 38 38
r 1.794469 1 5 cbr 512 ------- 0 3.0 5.0 38 38
+ 1.79872 3 0 cbr 512 ------- 0 3.0 5.0 39 39
- 1.79872 3 0 cbr 512 ------- 0 3.0 5.0 39 39
r 1.80413 3 0 cbr 512 ------- 0 3.0 5.0 39 39
+ 1.80413 0 1 cbr 512 ------- 0 3.0 5.0 39 39
- 1.80413 0 1 cbr 512 ------- 0 3.0 5.0 39 39
r 1.809539 0 1 cbr 512 ------- 0 3.0 5.0 39 39
+ 1.809539 1 5 cbr 512 ------- 0 3.0 5.0 39 39
- 1.809539 1 5 cbr 512 ------- 0 3.0 5.0 39 39
r 1.814949 1 5 cbr 512 ------- 0 3.0 5.0 39 39
+ 1.8192 3 0 cbr 512 ------- 0 3.0 5.0 40 40
- 1.8192 3 0 cbr 512 ------- 0 3.0 5.0 40 40
r 1.82461 3 0 cbr 512 ------- 0 3.0 5.0 40 40
+ 1.82461 0 1 cbr 512 ------- 0 3.0 5.0 40 40
- 1.82461 0 1 cbr 512 ------- 0 3.0 5.0 40 40
r 1.830019 0 1 cbr 512 ------- 0 3.0 5.0 40 40
+ 1.830019 1 5 cbr 512 ------- 0 3.0 5.0 40 40
- 1.830019 1 5 cbr 512 ------- 0 3.0 5.0 40 40
r 1.835429 1 5 cbr 512 ------- 0 3.0 5.0 40 40
+ 1.83968 3 0 cbr 512 ------- 0 3.0 5.0 41 41
- 1.83968 3 0 cbr 512 ------- 0 3.0 5.0 41 41
r 1.84509 3 0 cbr 512 ------- 0 3.0 5.0 41 41
+ 1.84509 0 1 cbr 512 ------- 0 3.0 5.0 41 41
- 1.84509 0 1 cbr 512 ------- 0 3.0 5.0 41 41
r 1.850499 0 1 cbr 512 ------- 0 3.0 5.0 41 41
+ 1.850499 1 5 cbr 512 ------- 0 3.0 5.0 41 41
- 1.850499 1 5 cbr 512 ------- 0 3.0 5.0 41 41
r 1.855909 1 5 cbr 512 ------- 0 3.0 5.0 41 41
+ 1.86016 3 0 cbr 512 ------- 0 3.0 5.0 42 42
- 1.86016 3 0 cbr 512 ------- 0 3.0 5.0 42 42
r 1.86557 3 0 cbr 512 ------- 0 3.0 5.0 42 42
+ 1.86557 0 1 cbr 512 ------- 0 3.0 5.0 42 42
- 1.86557 0 1 cbr 512 ------- 0 3.0 5.0 42 42
r 1.870979 0 1 cbr 512 ------- 0 3.0 5.0 42 42
+ 1.870979 1 5 cbr 512 ------- 0 3.0 5.0 42 42
- 1.870979 1 5 cbr 512 ------- 0 3.0 5.0 42 42
r 1.876389 1 5 cbr 512 ------- 0 3.0 5.0 42 42
+ 1.88064 3 0 cbr 512 ------- 0 3.0 5.0 43 43
- 1.88064 3 0 cbr 512 ------- 0 3.0 5.0 43 43
r 1.88605 3 0 cbr 512 ------- 0 3.0 5.0 43 43
+ 1.88605 0 1 cbr 512 ------- 0 3.0 5.0 43 43
- 1.88605 0 1 cbr 512 ------- 0 3.0 5.0 43 43
r 1.891459 0 1 cbr 512 ------- 0 3.0 5.0 43 43
+ 1.891459 1 5 cbr 512 ------- 0 3.0 5.0 43 43
- 1.891459 1 5 cbr 512 ------- 0 3.0 5.0 43 43
r 1.896869 1 5 cbr 512 ------- 0 3.0 5.0 43 43
+ 1.90112 3 0 cbr 512 ------- 0 3.0 5.0 44 44
- 1.90112 3 0 cbr 512 ------- 0 3.0 5.0 44 44
r 1.90653 3 0 cbr 512 ------- 0 3.0 5.0 44 44
+ 1.90653 0 1 cbr 512 ------- 0 3.0 5.0 44 44
- 1.90653 0 1 cbr 512 ------- 0 3.0 5.0 44 44
r 1.911939 0 1 cbr 512 ------- 0 3.0 5.0 44 44
+ 1.911939 1 5 cbr 512 ------- 0 3.0 5.0 44 44
- 1.911939 1 5 cbr 512 ------- 0 3.0 5.0 44 44
r 1.917349 1 5 cbr 512 ------- 0 3.0 5.0 44 44
+ 1.9216 3 0 cbr 512 ------- 0 3.0 5.0 45 45
- 1.9216 3 0 cbr 512 ------- 0 3.0 5.0 45 45
r 1.92701 3 0 cbr 512 ------- 0 3.0 5.0 45 45
+ 1.92701 0 1 cbr 512 ------- 0 3.0 5.0 45 45
- 1.92701 0 1 cbr 512 ------- 0 3.0 5.0 45 45
r 1.932419 0 1 cbr 512 ------- 0 3.0 5.0 45 45
+ 1.932419 1 5 cbr 512 ------- 0 3.0 5.0 45 45
- 1.932419 1 5 cbr 512 ------- 0 3.0 5.0 45 45
r 1.937829 1 5 cbr 512 ------- 0 3.0 5.0 45 45
+ 1.94208 3 0 cbr 512 ------- 0 3.0 5.0 46 46
- 1.94208 3 0 cbr 512 ------- 0 3.0 5.0 46 46
r 1.94749 3 0 cbr 512 ------- 0 3.0 5.0 46 46
+ 1.94749 0 1 cbr 512 ------- 0 3.0 5.0 46 46
- 1.94749 0 1 cbr 512 ------- 0 3.0 5.0 46 46
r 1.952899 0 1 cbr 512 ------- 0 3.0 5.0 46 46
+ 1.952899 1 5 cbr 512 ------- 0 3.0 5.0 46 46
- 1.952899 1 5 cbr 512 ------- 0 3.0 5.0 46 46
r 1.958309 1 5 cbr 512 ------- 0 3.0 5.0 46 46
+ 1.96256 3 0 cbr 512 ------- 0 3.0 5.0 47 47
- 1.96256 3 0 cbr 512 ------- 0 3.0 5.0 47 47
r 1.96797 3 0 cbr 512 ------- 0 3.0 5.0 47 47
+ 1.96797 0 1 cbr 512 ------- 0 3.0 5.0 47 47
- 1.96797 0 1 cbr 512 ------- 0 3.0 5.0 47 47
r 1.973379 0 1 cbr 512 ------- 0 3.0 5.0 47 47
+ 1.973379 1 5 cbr 512 ------- 0 3.0 5.0 47 47
- 1.973379 1 5 cbr 512 ------- 0 3.0 5.0 47 47
r 1.978789 1 5 cbr 512 ------- 0 3.0 5.0 47 47
+ 1.98304 3 0 cbr 512 ------- 0 3.0 5.0 48 48
- 1.98304 3 0 cbr 512 ------- 0 3.0 5.0 48 48
r 1.98845 3 0 cbr 512 ------- 0 3.0 5.0 48 48
+ 1.98845 0 1 cbr 512 ------- 0 3.0 5.0 48 48
- 1.98845 0 1 cbr 512 ------- 0 3.0 5.0 48 48
r 1.993859 0 1 cbr 512 ------- 0 3.0 5.0 48 48
+ 1.993859 1 5 cbr 512 ------- 0 3.0 5.0 48 48
- 1.993859 1 5 cbr 512 ------- 0 3.0 5.0 48 48
r 1.999269 1 5 cbr 512 ------- 0 3.0 5.0 48 48
+ 2 2 0 tcp 40 ------- 0 2.0 4.0 0 49
- 2 2 0 tcp 40 ------- 0 2.0 4.0 0 49
+ 2.00352 3 0 cbr 512 ------- 0 3.0 5.0 49 50
- 2.00352 3 0 cbr 512 ------- 0 3.0 5.0 49 50
r 2.005032 2 0 tcp 40 ------- 0 2.0 4.0 0 49
+ 2.005032 0 1 tcp 40 ------- 0 2.0 4.0 0 49
- 2.005032 0 1 tcp 40 ------- 0 2.0 4.0 0 49
r 2.00893 3 0 cbr 512 ------- 0 3.0 5.0 49 50
+ 2.00893 0 1 cbr 512 ------- 0 3.0 5.0 49 50
- 2.00893 0 1 cbr 512 ------- 0 3.0 5.0 49 50
r 2.010064 0 1 tcp 40 ------- 0 2.0 4.0 0 49
+ 2.010064 1 4 tcp 40 ------- 0 2.0 4.0 0 49
- 2.010064 1 4 tcp 40 ------- 0 2.0 4.0 0 49
r 2.014339 0 1 cbr 512 ------- 0 3.0 5.0 49 50
+ 2.014339 1 5 cbr 512 ------- 0 3.0 5.0 49 50
- 2.014339 1 5 cbr 512 ------- 0 3.0 5.0 49 50
r 2.015096 1 4 tcp 40 ------- 0 2.0 4.0 0 49
+ 2.015096 4 1 ack 40 ------- 0 4.0 2.0 0 51
- 2.015096 4 1 ack 40 ------- 0 4.0 2.0 0 51
r 2.019749 1 5 cbr 512 ------- 0 3.0 5.0 49 50
r 2.020128 4 1 ack 40 ------- 0 4.0 2.0 0 51
+ 2.020128 1 0 ack 40 ------- 0 4.0 2.0 0 51
- 2.020128 1 0 ack 40 ------- 0 4.0 2.0 0 51
+ 2.024 3 0 cbr 512 ------- 0 3.0 5.0 50 52
- 2.024 3 0 cbr 512 ------- 0 3.0 5.0 50 52
r 2.02516 1 0 ack 40 ------- 0 4.0 2.0 0 51
+ 2.02516 0 2 ack 40 ------- 0 4.0 2.0 0 51
- 2.02516 0 2 ack 40 ------- 0 4.0 2.0 0 51
r 2.02941 3 0 cbr 512 ------- 0 3.0 5.0 50 52
+ 2.02941 0 1 cbr 512 ------- 0 3.0 5.0 50 52
- 2.02941 0 1 cbr 512 ------- 0 3.0 5.0 50 52
r 2.030192 0 2 ack 40 ------- 0 4.0 2.0 0 51
+ 2.030192 2 0 tcp 190 ------- 0 2.0 4.0 1 53
- 2.030192 2 0 tcp 190 ------- 0 2.0 4.0 1 53
+ 2.030192 2 0 tcp 190 ------- 0 2.0 4.0 2 54
- 2.030344 2 0 tcp 190 ------- 0 2.0 4.0 2 54
r 2.034819 0 1 cbr 512 ------- 0 3.0 5.0 50 52
+ 2.034819 1 5 cbr 512 ------- 0 3.0 5.0 50 52
- 2.034819 1 5 cbr 512 ------- 0 3.0 5.0 50 52
r 2.035344 2 0 tcp 190 ------- 0 2.0 4.0 1 53
+ 2.035344 0 1 tcp 190 ------- 0 2.0 4.0 1 53
- 2.035344 0 1 tcp 190 ------- 0 2.0 4.0 1 53
r 2.035496 2 0 tcp 190 ------- 0 2.0 4.0 2 54
+ 2.035496 0 1 tcp 190 ------- 0 2.0 4.0 2 54
- 2.035496 0 1 tcp 190 ------- 0 2.0 4.0 2 54
r 2.040229 1 5 cbr 512 ------- 0 3.0 5.0 50 52
r 2.040496 0 1 tcp 190 ------- 0 2.0 4.0 1 53
+ 2.040496 1 4 tcp 190 ------- 0 2.0 4.0 1 53
- 2.040496 1 4 tcp 190 ------- 0 2.0 4.0 1 53
r 2.040648 0 1 tcp 190 ------- 0 2.0 4.0 2 54
+ 2.040648 1 4 tcp 190 ------- 0 2.0 4.0 2 54
- 2.040648 1 4 tcp 190 ------- 0 2.0 4.0 2 54
+ 2.04448 3 0 cbr 512 ------- 0 3.0 5.0 51 55
- 2.04448 3 0 cbr 512 ------- 0 3.0 5.0 51 55
r 2.045648 1 4 tcp 190 ------- 0 2.0 4.0 1 53
+ 2.045648 4 1 ack 40 ------- 0 4.0 2.0 1 56
- 2.045648 4 1 ack 40 ------- 0 4.0 2.0 1 56
r 2.0458 1 4 tcp 190 ------- 0 2.0 4.0 2 54
+ 2.0458 4 1 ack 40 ------- 0 4.0 2.0 2 57
- 2.0458 4 1 ack 40 ------- 0 4.0 2.0 2 57
r 2.04989 3 0 cbr 512 ------- 0 3.0 5.0 51 55
+ 2.04989 0 1 cbr 512 ------- 0 3.0 5.0 51 55
- 2.04989 0 1 cbr 512 ------- 0 3.0 5.0 51 55
r 2.05068 4 1 ack 40 ------- 0 4.0 2.0 1 56
+ 2.05068 1 0 ack 40 ------- 0 4.0 2.0 1 56
- 2.05068 1 0 ack 40 ------- 0 4.0 2.0 1 56
r 2.050832 4 1 ack 40 ------- 0 4.0 2.0 2 57
+ 2.050832 1 0 ack 40 ------- 0 4.0 2.0 2 57
- 2.050832 1 0 ack 40 ------- 0 4.0 2.0 2 57
r 2.055299 0 1 cbr 512 ------- 0 3.0 5.0 51 55
+ 2.055299 1 5 cbr 512 ------- 0 3.0 5.0 51 55
- 2.055299 1 5 cbr 512 ------- 0 3.0 5.0 51 55
r 2.055712 1 0 ack 40 ------- 0 4.0 2.0 1 56
+ 2.055712 0 2 ack 40 ------- 0 4.0 2.0 1 56
- 2.055712 0 2 ack 40 ------- 0 4.0 2.0 1 56
r 2.055864 1 0 ack 40 ------- 0 4.0 2.0 2 57
+ 2.055864 0 2 ack 40 ------- 0 4.0 2.0 2 57
- 2.055864 0 2 ack 40 ------- 0 4.0 2.0 2 57
r 2.060709 1 5 cbr 512 ------- 0 3.0 5.0 51 55
r 2.060744 0 2 ack 40 ------- 0 4.0 2.0 1 56
+ 2.060744 2 0 tcp 190 ------- 0 2.0 4.0 3 58
- 2.060744 2 0 tcp 190 ------- 0 2.0 4.0 3 58
+ 2.060744 2 0 tcp 190 ------- 0 2.0 4.0 4 59
r 2.060896 0 2 ack 40 ------- 0 4.0 2.0 2 57
+ 2.060896 2 0 tcp 190 ------- 0 2.0 4.0 5 60
+ 2.060896 2 0 tcp 190 ------- 0 2.0 4.0 6 61
- 2.060896 2 0 tcp 190 ------- 0 2.0 4.0 4 59
- 2.061048 2 0 tcp 190 ------- 0 2.0 4.0 5 60
- 2.0612 2 0 tcp 190 ------- 0 2.0 4.0 6 61
+ 2.06496 3 0 cbr 512 ------- 0 3.0 5.0 52 62
- 2.06496 3 0 cbr 512 ------- 0 3.0 5.0 52 62
r 2.065896 2 0 tcp 190 ------- 0 2.0 4.0 3 58
+ 2.065896 0 1 tcp 190 ------- 0 2.0 4.0 3 58
- 2.065896 0 1 tcp 190 ------- 0 2.0 4.0 3 58
r 2.066048 2 0 tcp 190 ------- 0 2.0 4.0 4 59
+ 2.066048 0 1 tcp 190 ------- 0 2.0 4.0 4 59
- 2.066048 0 1 tcp 190 ------- 0 2.0 4.0 4 59
r 2.0662 2 0 tcp 190 ------- 0 2.0 4.0 5 60
+ 2.0662 0 1 tcp 190 ------- 0 2.0 4.0 5 60
- 2.0662 0 1 tcp 190 ------- 0 2.0 4.0 5 60
r 2.066352 2 0 tcp 190 ------- 0 2.0 4.0 6 61
+ 2.066352 0 1 tcp 190 ------- 0 2.0 4.0 6 61
- 2.066352 0 1 tcp 190 ------- 0 2.0 4.0 6 61
r 2.07037 3 0 cbr 512 ------- 0 3.0 5.0 52 62
+ 2.07037 0 1 cbr 512 ------- 0 3.0 5.0 52 62
- 2.07037 0 1 cbr 512 ------- 0 3.0 5.0 52 62
r 2.071048 0 1 tcp 190 ------- 0 2.0 4.0 3 58
+ 2.071048 1 4 tcp 190 ------- 0 2.0 4.0 3 58
- 2.071048 1 4 tcp 190 ------- 0 2.0 4.0 3 58
r 2.0712 0 1 tcp 190 ------- 0 2.0 4.0 4 59
+ 2.0712 1 4 tcp 190 ------- 0 2.0 4.0 4 59
- 2.0712 1 4 tcp 190 ------- 0 2.0 4.0 4 59
r 2.071352 0 1 tcp 190 ------- 0 2.0 4.0 5 60
+ 2.071352 1 4 tcp 190 ------- 0 2.0 4.0 5 60
- 2.071352 1 4 tcp 190 ------- 0 2.0 4.0 5 60
r 2.071504 0 1 tcp 190 ------- 0 2.0 4.0 6 61
+ 2.071504 1 4 tcp 190 ------- 0 2.0 4.0 6 61
- 2.071504 1 4 tcp 190 ------- 0 2.0 4.0 6 61
r 2.075779 0 1 cbr 512 ------- 0 3.0 5.0 52 62
+ 2.075779 1 5 cbr 512 ------- 0 3.0 5.0 52 62
- 2.075779 1 5 cbr 512 ------- 0 3.0 5.0 52 62
r 2.0762 1 4 tcp 190 ------- 0 2.0 4.0 3 58
+ 2.0762 4 1 ack 40 ------- 0 4.0 2.0 3 63
- 2.0762 4 1 ack 40 ------- 0 4.0 2.0 3 63
r 2.076352 1 4 tcp 190 ------- 0 2.0 4.0 4 59
+ 2.076352 4 1 ack 40 ------- 0 4.0 2.0 4 64
- 2.076352 4 1 ack 40 ------- 0 4.0 2.0 4 64
r 2.076504 1 4 tcp 190 ------- 0 2.0 4.0 5 60
+ 2.076504 4 1 ack 40 ------- 0 4.0 2.0 5 65
- 2.076504 4 1 ack 40 ------- 0 4.0 2.0 5 65
r 2.076656 1 4 tcp 190 ------- 0 2.0 4.0 6 61
+ 2.076656 4 1 ack 40 ------- 0 4.0 2.0 6 66
- 2.076656 4 1 ack 40 ------- 0 4.0 2.0 6 66
r 2.081189 1 5 cbr 512 ------- 0 3.0 5.0 52 62
r 2.081232 4 1 ack 40 ------- 0 4.0 2.0 3 63
+ 2.081232 1 0 ack 40 ------- 0 4.0 2.0 3 63
- 2.081232 1 0 ack 40 ------- 0 4.0 2.0 3 63
r 2.081384 4 1 ack 40 ------- 0 4.0 2.0 4 64
+ 2.081384 1 0 ack 40 ------- 0 4.0 2.0 4 64
- 2.081384 1 0 ack 40 ------- 0 4.0 2.0 4 64
r 2.081536 4 1 ack 40 ------- 0 4.0 2.0 5 65
+ 2.081536 1 0 ack 40 ------- 0 4.0 2.0 5 65
- 2.081536 1 0 ack 40 ------- 0 4.0 2.0 5 65
r 2.081688 4 1 ack 40 ------- 0 4.0 2.0 6 66
+ 2.081688 1 0 ack 40 ------- 0 4.0 2.0 6 66
- 2.081688 1 0 ack 40 ------- 0 4.0 2.0 6 66
+ 2.08544 3 0 cbr 512 ------- 0 3.0 5.0 53 67
- 2.08544 3 0 cbr 512 ------- 0 3.0 5.0 53 67
r 2.086264 1 0 ack 40 ------- 0 4.0 2.0 3 63
+ 2.086264 0 2 ack 40 ------- 0 4.0 2.0 3 63
- 2.086264 0 2 ack 40 ------- 0 4.0 2.0 3 63
r 2.086416 1 0 ack 40 ------- 0 4.0 2.0 4 64
+ 2.086416 0 2 ack 40 ------- 0 4.0 2.0 4 64
- 2.086416 0 2 ack 40 ------- 0 4.0 2.0 4 64
r 2.086568 1 0 ack 40 ------- 0 4.0 2.0 5 65
+ 2.086568 0 2 ack 40 ------- 0 4.0 2.0 5 65
- 2.086568 0 2 ack 40 ------- 0 4.0 2.0 5 65
r 2.08672 1 0 ack 40 ------- 0 4.0 2.0 6 66
+ 2.08672 0 2 ack 40 ------- 0 4.0 2.0 6 66
- 2.08672 0 2 ack 40 ------- 0 4.0 2.0 6 66
r 2.09085 3 0 cbr 512 ------- 0 3.0 5.0 53 67
+ 2.09085 0 1 cbr 512 ------- 0 3.0 5.0 53 67
- 2.09085 0 1 cbr 512 ------- 0 3.0 5.0 53 67
r 2.091296 0 2 ack 40 ------- 0 4.0 2.0 3 63
+ 2.091296 2 0 tcp 190 ------- 0 2.0 4.0 7 68
- 2.091296 2 0 tcp 190 ------- 0 2.0 4.0 7 68
+ 2.091296 2 0 tcp 190 ------- 0 2.0 4.0 8 69
r 2.091448 0 2 ack 40 ------- 0 4.0 2.0 4 64
+ 2.091448 2 0 tcp 190 ------- 0 2.0 4.0 9 70
+ 2.091448 2 0 tcp 190 ------- 0 2.0 4.0 10 71
- 2.091448 2 0 tcp 190 ------- 0 2.0 4.0 8 69
r 2.0916 0 2 ack 40 ------- 0 4.0 2.0 5 65
+ 2.0916 2 0 tcp 190 ------- 0 2.0 4.0 11 72
+ 2.0916 2 0 tcp 190 ------- 0 2.0 4.0 12 73
- 2.0916 2 0 tcp 190 ------- 0 2.0 4.0 9 70
r 2.091752 0 2 ack 40 ------- 0 4.0 2.0 6 66
+ 2.091752 2 0 tcp 190 ------- 0 2.0 4.0 13 74
+ 2.091752 2 0 tcp 190 ------- 0 2.0 4.0 14 75
- 2.091752 2 0 tcp 190 ------- 0 2.0 4.0 10 71
- 2.091904 2 0 tcp 190 ------- 0 2.0 4.0 11 72
- 2.092056 2 0 tcp 190 ------- 0 2.0 4.0 12 73
- 2.092208 2 0 tcp 190 ------- 0 2.0 4.0 13 74
- 2.09236 2 0 tcp 190 ------- 0 2.0 4.0 14 75
r 2.096259 0 1 cbr 512 ------- 0 3.0 5.0 53 67
+ 2.096259 1 5 cbr 512 ------- 0 3.0 5.0 53 67
- 2.096259 1 5 cbr 512 ------- 0 3.0 5.0 53 67
r 2.096448 2 0 tcp 190 ------- 0 2.0 4.0 7 68
+ 2.096448 0 1 tcp 190 ------- 0 2.0 4.0 7 68
- 2.096448 0 1 tcp 190 ------- 0 2.0 4.0 7 68
r 2.0966 2 0 tcp 190 ------- 0 2.0 4.0 8 69
+ 2.0966 0 1 tcp 190 ------- 0 2.0 4.0 8 69
- 2.0966 0 1 tcp 190 ------- 0 2.0 4.0 8 69
r 2.096752 2 0 tcp 190 ------- 0 2.0 4.0 9 70
+ 2.096752 0 1 tcp 190 ------- 0 2.0 4.0 9 70
- 2.096752 0 1 tcp 190 ------- 0 2.0 4.0 9 70
r 2.096904 2 0 tcp 190 ------- 0 2.0 4.0 10 71
+ 2.096904 0 1 tcp 190 ------- 0 2.0 4.0 10 71
- 2.096904 0 1 tcp 190 ------- 0 2.0 4.0 10 71
r 2.097056 2 0 tcp 190 ------- 0 2.0 4.0 11 72
+ 2.097056 0 1 tcp 190 ------- 0 2.0 4.0 11 72
- 2.097056 0 1 tcp 190 ------- 0 2.0 4.0 11 72
r 2.097208 2 0 tcp 190 ------- 0 2.0 4.0 12 73
+ 2.097208 0 1 tcp 190 ------- 0 2.0 4.0 12 73
- 2.097208 0 1 tcp 190 ------- 0 2.0 4.0 12 73
r 2.09736 2 0 tcp 190 ------- 0 2.0 4.0 13 74
+ 2.09736 0 1 tcp 190 ------- 0 2.0 4.0 13 74
- 2.09736 0 1 tcp 190 ------- 0 2.0 4.0 13 74
r 2.097512 2 0 tcp 190 ------- 0 2.0 4.0 14 75
+ 2.097512 0 1 tcp 190 ------- 0 2.0 4.0 14 75
- 2.097512 0 1 tcp 190 ------- 0 2.0 4.0 14 75
r 2.1016 0 1 tcp 190 ------- 0 2.0 4.0 7 68
+ 2.1016 1 4 tcp 190 ------- 0 2.0 4.0 7 68
- 2.1016 1 4 tcp 190 ------- 0 2.0 4.0 7 68