+ 1 3 0 cbr 1000 ------- 0 3.0 5.0 0 0
- 1 3 0 cbr 1000 ------- 0 3.0 5.0 0 0
+ 1 3 0 cbr 1000 ------- 0 3.0 5.0 1 1
+ 1 3 0 cbr 48 ------- 0 3.0 5.0 2 2
- 1.0008 3 0 cbr 1000 ------- 0 3.0 5.0 1 1
- 1.0016 3 0 cbr 48 ------- 0 3.0 5.0 2 2
r 1.0058 3 0 cbr 1000 ------- 0 3.0 5.0 0 0
+ 1.0058 0 1 cbr 1000 ------- 0 3.0 5.0 0 0
- 1.0058 0 1 cbr 1000 ------- 0 3.0 5.0 0 0
r 1.0066 3 0 cbr 1000 ------- 0 3.0 5.0 1 1
+ 1.0066 0 1 cbr 1000 ------- 0 3.0 5.0 1 1
- 1.0066 0 1 cbr 1000 ------- 0 3.0 5.0 1 1
r 1.006638 3 0 cbr 48 ------- 0 3.0 5.0 2 2
+ 1.006638 0 1 cbr 48 ------- 0 3.0 5.0 2 2
- 1.0074 0 1 cbr 48 ------- 0 3.0 5.0 2 2
+ 1.010923 3 0 cbr 1000 ------- 0 3.0 5.0 3 3
- 1.010923 3 0 cbr 1000 ------- 0 3.0 5.0 3 3
+ 1.010923 3 0 cbr 1000 ------- 0 3.0 5.0 4 4
+ 1.010923 3 0 cbr 48 ------- 0 3.0 5.0 5 5
r 1.0116 0 1 cbr 1000 ------- 0 3.0 5.0 0 0
+ 1.0116 1 5 cbr 1000 ------- 0 3.0 5.0 0 0
- 1.0116 1 5 cbr 1000 ------- 0 3.0 5.0 0 0
- 1.011723 3 0 cbr 1000 ------- 0 3.0 5.0 4 4
r 1.0124 0 1 cbr 1000 ------- 0 3.0 5.0 1 1
+ 1.0124 1 5 cbr 1000 ------- 0 3.0 5.0 1 1
- 1.0124 1 5 cbr 1000 ------- 0 3.0 5.0 1 1
r 1.012438 0 1 cbr 48 ------- 0 3.0 5.0 2 2
+ 1.012438 1 5 cbr 48 ------- 0 3.0 5.0 2 2
- 1.012523 3 0 cbr 48 ------- 0 3.0 5.0 5 5
- 1.0132 1 5 cbr 48 ------- 0 3.0 5.0 2 2
r 1.016723 3 0 cbr 1000 ------- 0 3.0 5.0 3 3
+ 1.016723 0 1 cbr 1000 ------- 0 3.0 5.0 3 3
- 1.016723 0 1 cbr 1000 ------- 0 3.0 5.0 3 3
r 1.0174 1 5 cbr 1000 ------- 0 3.0 5.0 0 0
r 1.017523 3 0 cbr 1000 ------- 0 3.0 5.0 4 4
+ 1.017523 0 1 cbr 1000 ------- 0 3.0 5.0 4 4
- 1.017523 0 1 cbr 1000 ------- 0 3.0 5.0 4 4
r 1.017561 3 0 cbr 48 ------- 0 3.0 5.0 5 5
+ 1.017561 0 1 cbr 48 ------- 0 3.0 5.0 5 5
r 1.0182 1 5 cbr 1000 ------- 0 3.0 5.0 1 1
r 1.018238 1 5 cbr 48 ------- 0 3.0 5.0 2 2
- 1.018323 0 1 cbr 48 ------- 0 3.0 5.0 5 5
+ 1.021845 3 0 cbr 1000 ------- 0 3.0 5.0 6 6
- 1.021845 3 0 cbr 1000 ------- 0 3.0 5.0 6 6
+ 1.021845 3 0 cbr 1000 ------- 0 3.0 5.0 7 7
+ 1.021845 3 0 cbr 48 ------- 0 3.0 5.0 8 8
r 1.022523 0 1 cbr 1000 ------- 0 3.0 5.0 3 3
+ 1.022523 1 5 cbr 1000 ------- 0 3.0 5.0 3 3
- 1.022523 1 5 cbr 1000 ------- 0 3.0 5.0 3 3
- 1.022645 3 0 cbr 1000 ------- 0 3.0 5.0 7 7
r 1.023323 0 1 cbr 1000 ------- 0 3.0 5.0 4 4
+ 1.023323 1 5 cbr 1000 ------- 0 3.0 5.0 4 4
- 1.023323 1 5 cbr 1000 ------- 0 3.0 5.0 4 4
r 1.023361 0 1 cbr 48 ------- 0 3.0 5.0 5 5
+ 1.023361 1 5 cbr 48 ------- 0 3.0 5.0 5 5
- 1.023445 3 0 cbr 48 ------- 0 3.0 5.0 8 8
- 1.024123 1 5 cbr 48 ------- 0 3.0 5.0 5 5
r 1.027645 3 0 cbr 1000 ------- 0 3.0 5.0 6 6
+ 1.027645 0 1 cbr 1000 ------- 0 3.0 5.0 6 6
- 1.027645 0 1 cbr 1000 ------- 0 3.0 5.0 6 6
r 1.028323 1 5 cbr 1000 ------- 0 3.0 5.0 3 3
r 1.028445 3 0 cbr 1000 ------- 0 3.0 5.0 7 7
+ 1.028445 0 1 cbr 1000 ------- 0 3.0 5.0 7 7
- 1.028445 0 1 cbr 1000 ------- 0 3.0 5.0 7 7
r 1.028484 3 0 cbr 48 ------- 0 3.0 5.0 8 8
+ 1.028484 0 1 cbr 48 ------- 0 3.0 5.0 8 8
r 1.029123 1 5 cbr 1000 ------- 0 3.0 5.0 4 4
r 1.029161 1 5 cbr 48 ------- 0 3.0 5.0 5 5
- 1.029245 0 1 cbr 48 ------- 0 3.0 5.0 8 8
+ 1.032768 3 0 cbr 1000 ------- 0 3.0 5.0 9 9
- 1.032768 3 0 cbr 1000 ------- 0 3.0 5.0 9 9
+ 1.032768 3 0 cbr 1000 ------- 0 3.0 5.0 10 10
+ 1.032768 3 0 cbr 48 ------- 0 3.0 5.0 11 11
r 1.033445 0 1 cbr 1000 ------- 0 3.0 5.0 6 6
+ 1.033445 1 5 cbr 1000 ------- 0 3.0 5.0 6 6
- 1.033445 1 5 cbr 1000 ------- 0 3.0 5.0 6 6
- 1.033568 3 0 cbr 1000 ------- 0 3.0 5.0 10 10
r 1.034245 0 1 cbr 1000 ------- 0 3.0 5.0 7 7
+ 1.034245 1 5 cbr 1000 ------- 0 3.0 5.0 7 7
- 1.034245 1 5 cbr 1000 ------- 0 3.0 5.0 7 7
r 1.034284 0 1 cbr 48 ------- 0 3.0 5.0 8 8
+ 1.034284 1 5 cbr 48 ------- 0 3.0 5.0 8 8
- 1.034368 3 0 cbr 48 ------- 0 3.0 5.0 11 11
- 1.035045 1 5 cbr 48 ------- 0 3.0 5.0 8 8
r 1.038568 3 0 cbr 1000 ------- 0 3.0 5.0 9 9
+ 1.038568 0 1 cbr 1000 ------- 0 3.0 5.0 9 9
- 1.038568 0 1 cbr 1000 ------- 0 3.0 5.0 9 9
r 1.039245 1 5 cbr 1000 ------- 0 3.0 5.0 6 6
r 1.039368 3 0 cbr 1000 ------- 0 3.0 5.0 10 10
+ 1.039368 0 1 cbr 1000 ------- 0 3.0 5.0 10 10
- 1.039368 0 1 cbr 1000 ------- 0 3.0 5.0 10 10
r 1.039406 3 0 cbr 48 ------- 0 3.0 5.0 11 11
+ 1.039406 0 1 cbr 48 ------- 0 3.0 5.0 11 11
r 1.040045 1 5 cbr 1000 ------- 0 3.0 5.0 7 7
r 1.040084 1 5 cbr 48 ------- 0 3.0 5.0 8 8
- 1.040168 0 1 cbr 48 ------- 0 3.0 5.0 11 11
+ 1.043691 3 0 cbr 1000 ------- 0 3.0 5.0 12 12
- 1.043691 3 0 cbr 1000 ------- 0 3.0 5.0 12 12
+ 1.043691 3 0 cbr 1000 ------- 0 3.0 5.0 13 13
+ 1.043691 3 0 cbr 48 ------- 0 3.0 5.0 14 14
r 1.044368 0 1 cbr 1000 ------- 0 3.0 5.0 9 9
+ 1.044368 1 5 cbr 1000 ------- 0 3.0 5.0 9 9
- 1.044368 1 5 cbr 1000 ------- 0 3.0 5.0 9 9
- 1.044491 3 0 cbr 1000 ------- 0 3.0 5.0 13 13
r 1.045168 0 1 cbr 1000 ------- 0 3.0 5.0 10 10
+ 1.045168 1 5 cbr 1000 ------- 0 3.0 5.0 10 10
- 1.045168 1 5 cbr 1000 ------- 0 3.0 5.0 10 10
r 1.045206 0 1 cbr 48 ------- 0 3.0 5.0 11 11
+ 1.045206 1 5 cbr 48 ------- 0 3.0 5.0 11 11
- 1.045291 3 0 cbr 48 ------- 0 3.0 5.0 14 14
- 1.045968 1 5 cbr 48 ------- 0 3.0 5.0 11 11
r 1.049491 3 0 cbr 1000 ------- 0 3.0 5.0 12 12
+ 1.049491 0 1 cbr 1000 ------- 0 3.0 5.0 12 12
- 1.049491 0 1 cbr 1000 ------- 0 3.0 5.0 12 12
r 1.050168 1 5 cbr 1000 ------- 0 3.0 5.0 9 9
r 1.050291 3 0 cbr 1000 ------- 0 3.0 5.0 13 13
+ 1.050291 0 1 cbr 1000 ------- 0 3.0 5.0 13 13
- 1.050291 0 1 cbr 1000 ------- 0 3.0 5.0 13 13
r 1.050329 3 0 cbr 48 ------- 0 3.0 5.0 14 14
+ 1.050329 0 1 cbr 48 ------- 0 3.0 5.0 14 14
r 1.050968 1 5 cbr 1000 ------- 0 3.0 5.0 10 10
r 1.051006 1 5 cbr 48 ------- 0 3.0 5.0 11 11
- 1.051091 0 1 cbr 48 ------- 0 3.0 5.0 14 14
+ 1.054613 3 0 cbr 1000 ------- 0 3.0 5.0 15 15
- 1.054613 3 0 cbr 1000 ------- 0 3.0 5.0 15 15
+ 1.054613 3 0 cbr 1000 ------- 0 3.0 5.0 16 16
+ 1.054613 3 0 cbr 48 ------- 0 3.0 5.0 17 17
r 1.055291 0 1 cbr 1000 ------- 0 3.0 5.0 12 12
+ 1.055291 1 5 cbr 1000 ------- 0 3.0 5.0 12 12
- 1.055291 1 5 cbr 1000 ------- 0 3.0 5.0 12 12
- 1.055413 3 0 cbr 1000 ------- 0 3.0 5.0 16 16
r 1.056091 0 1 cbr 1000 ------- 0 3.0 5.0 13 13
+ 1.056091 1 5 cbr 1000 ------- 0 3.0 5.0 13 13
- 1.056091 1 5 cbr 1000 ------- 0 3.0 5.0 13 13
r 1.056129 0 1 cbr 48 ------- 0 3.0 5.0 14 14
+ 1.056129 1 5 cbr 48 ------- 0 3.0 5.0 14 14
- 1.056213 3 0 cbr 48 ------- 0 3.0 5.0 17 17
- 1.056891 1 5 cbr 48 ------- 0 3.0 5.0 14 14
r 1.060413 3 0 cbr 1000 ------- 0 3.0 5.0 15 15
+ 1.060413 0 1 cbr 1000 ------- 0 3.0 5.0 15 15
- 1.060413 0 1 cbr 1000 ------- 0 3.0 5.0 15 15
r 1.061091 1 5 cbr 1000 ------- 0 3.0 5.0 12 12
r 1.061213 3 0 cbr 1000 ------- 0 3.0 5.0 16 16
+ 1.061213 0 1 cbr 1000 ------- 0 3.0 5.0 16 16
- 1.061213 0 1 cbr 1000 ------- 0 3.0 5.0 16 16
r 1.061252 3 0 cbr 48 ------- 0 3.0 5.0 17 17
+ 1.061252 0 1 cbr 48 ------- 0 3.0 5.0 17 17
r 1.061891 1 5 cbr 1000 ------- 0 3.0 5.0 13 13
r 1.061929 1 5 cbr 48 ------- 0 3.0 5.0 14 14
- 1.062013 0 1 cbr 48 ------- 0 3.0 5.0 17 17
+ 1.065536 3 0 cbr 1000 ------- 0 3.0 5.0 18 18
- 1.065536 3 0 cbr 1000 ------- 0 3.0 5.0 18 18
+ 1.065536 3 0 cbr 1000 ------- 0 3.0 5.0 19 19
+ 1.065536 3 0 cbr 48 ------- 0 3.0 5.0 20 20
r 1.066213 0 1 cbr 1000 ------- 0 3.0 5.0 15 15
+ 1.066213 1 5 cbr 1000 ------- 0 3.0 5.0 15 15
- 1.066213 1 5 cbr 1000 ------- 0 3.0 5.0 15 15
- 1.066336 3 0 cbr 1000 ------- 0 3.0 5.0 19 19
r 1.067013 0 1 cbr 1000 ------- 0 3.0 5.0 16 16
+ 1.067013 1 5 cbr 1000 ------- 0 3.0 5.0 16 16
- 1.067013 1 5 cbr 1000 ------- 0 3.0 5.0 16 16
r 1.067052 0 1 cbr 48 ------- 0 3.0 5.0 17 17
+ 1.067052 1 5 cbr 48 ------- 0 3.0 5.0 17 17
- 1.067136 3 0 cbr 48 ------- 0 3.0 5.0 20 20
- 1.067813 1 5 cbr 48 ------- 0 3.0 5.0 17 17
r 1.071336 3 0 cbr 1000 ------- 0 3.0 5.0 18 18
+ 1.071336 0 1 cbr 1000 ------- 0 3.0 5.0 18 18
- 1.071336 0 1 cbr 1000 ------- 0 3.0 5.0 18 18
r 1.072013 1 5 cbr 1000 ------- 0 3.0 5.0 15 15
r 1.072136 3 0 cbr 1000 ------- 0 3.0 5.0 19 19
+ 1.072136 0 1 cbr 1000 ------- 0 3.0 5.0 19 19
- 1.072136 0 1 cbr 1000 ------- 0 3.0 5.0 19 19
r 1.072174 3 0 cbr 48 ------- 0 3.0 5.0 20 20
+ 1.072174 0 1 cbr 48 ------- 0 3.0 5.0 20 20
r 1.072813 1 5 cbr 1000 ------- 0 3.0 5.0 16 16
r 1.072852 1 5 cbr 48 ------- 0 3.0 5.0 17 17
- 1.072936 0 1 cbr 48 ------- 0 3.0 5.0 20 20
+ 1.076459 3 0 cbr 1000 ------- 0 3.0 5.0 21 21
- 1.076459 3 0 cbr 1000 ------- 0 3.0 5.0 21 21
+ 1.076459 3 0 cbr 1000 ------- 0 3.0 5.0 22 22
+ 1.076459 3 0 cbr 48 ------- 0 3.0 5.0 23 23
r 1.077136 0 1 cbr 1000 ------- 0 3.0 5.0 18 18
+ 1.077136 1 5 cbr 1000 ------- 0 3.0 5.0 18 18
- 1.077136 1 5 cbr 1000 ------- 0 3.0 5.0 18 18
- 1.077259 3 0 cbr 1000 ------- 0 3.0 5.0 22 22
r 1.077936 0 1 cbr 1000 ------- 0 3.0 5.0 19 19
+ 1.077936 1 5 cbr 1000 ------- 0 3.0 5.0 19 19
- 1.077936 1 5 cbr 1000 ------- 0 3.0 5.0 19 19
r 1.077974 0 1 cbr 48 ------- 0 3.0 5.0 20 20
+ 1.077974 1 5 cbr 48 ------- 0 3.0 5.0 20 20
- 1.078059 3 0 cbr 48 ------- 0 3.0 5.0 23 23
- 1.078736 1 5 cbr 48 ------- 0 3.0 5.0 20 20
r 1.082259 3 0 cbr 1000 ------- 0 3.0 5.0 21 21
+ 1.082259 0 1 cbr 1000 ------- 0 3.0 5.0 21 21
- 1.082259 0 1 cbr 1000 ------- 0 3.0 5.0 21 21
r 1.082936 1 5 cbr 1000 ------- 0 3.0 5.0 18 18
r 1.083059 3 0 cbr 1000 ------- 0 3.0 5.0 22 22
+ 1.083059 0 1 cbr 1000 ------- 0 3.0 5.0 22 22
- 1.083059 0 1 cbr 1000 ------- 0 3.0 5.0 22 22
r 1.083097 3 0 cbr 48 ------- 0 3.0 5.0 23 23
+ 1.083097 0 1 cbr 48 ------- 0 3.0 5.0 23 23
r 1.083736 1 5 cbr 1000 ------- 0 3.0 5.0 19 19
r 1.083774 1 5 cbr 48 ------- 0 3.0 5.0 20 20
- 1.083859 0 1 cbr 48 ------- 0 3.0 5.0 23 23
+ 1.087381 3 0 cbr 1000 ------- 0 3.0 5.0 24 24
- 1.087381 3 0 cbr 1000 ------- 0 3.0 5.0 24 24
+ 1.087381 3 0 cbr 1000 ------- 0 3.0 5.0 25 25
+ 1.087381 3 0 cbr 48 ------- 0 3.0 5.0 26 26
r 1.088059 0 1 cbr 1000 ------- 0 3.0 5.0 21 21
+ 1.088059 1 5 cbr 1000 ------- 0 3.0 5.0 21 21
- 1.088059 1 5 cbr 1000 ------- 0 3.0 5.0 21 21
- 1.088181 3 0 cbr 1000 ------- 0 3.0 5.0 25 25
r 1.088859 0 1 cbr 1000 ------- 0 3.0 5.0 22 22
+ 1.088859 1 5 cbr 1000 ------- 0 3.0 5.0 22 22
- 1.088859 1 5 cbr 1000 ------- 0 3.0 5.0 22 22
r 1.088897 0 1 cbr 48 ------- 0 3.0 5.0 23 23
+ 1.088897 1 5 cbr 48 ------- 0 3.0 5.0 23 23
- 1.088981 3 0 cbr 48 ------- 0 3.0 5.0 26 26
- 1.089659 1 5 cbr 48 ------- 0 3.0 5.0 23 23
r 1.093181 3 0 cbr 1000 ------- 0 3.0 5.0 24 24
+ 1.093181 0 1 cbr 1000 ------- 0 3.0 5.0 24 24
- 1.093181 0 1 cbr 1000 ------- 0 3.0 5.0 24 24
r 1.093859 1 5 cbr 1000 ------- 0 3.0 5.0 21 21
r 1.093981 3 0 cbr 1000 ------- 0 3.0 5.0 25 25
+ 1.093981 0 1 cbr 1000 ------- 0 3.0 5.0 25 25
- 1.093981 0 1 cbr 1000 ------- 0 3.0 5.0 25 25
r 1.09402 3 0 cbr 48 ------- 0 3.0 5.0 26 26
+ 1.09402 0 1 cbr 48 ------- 0 3.0 5.0 26 26
r 1.094659 1 5 cbr 1000 ------- 0 3.0 5.0 22 22
r 1.094697 1 5 cbr 48 ------- 0 3.0 5.0 23 23
- 1.094781 0 1 cbr 48 ------- 0 3.0 5.0 26 26
+ 1.098304 3 0 cbr 1000 ------- 0 3.0 5.0 27 27
- 1.098304 3 0 cbr 1000 ------- 0 3.0 5.0 27 27
+ 1.098304 3 0 cbr 1000 ------- 0 3.0 5.0 28 28
+ 1.098304 3 0 cbr 48 ------- 0 3.0 5.0 29 29
r 1.098981 0 1 cbr 1000 ------- 0 3.0 5.0 24 24
+ 1.098981 1 5 cbr 1000 ------- 0 3.0 5.0 24 24
- 1.098981 1 5 cbr 1000 ------- 0 3.0 5.0 24 24
- 1.099104 3 0 cbr 1000 ------- 0 3.0 5.0 28 28
r 1.099781 0 1 cbr 1000 ------- 0 3.0 5.0 25 25
+ 1.099781 1 5 cbr 1000 ------- 0 3.0 5.0 25 25
- 1.099781 1 5 cbr 1000 ------- 0 3.0 5.0 25 25
r 1.09982 0 1 cbr 48 ------- 0 3.0 5.0 26 26
+ 1.09982 1 5 cbr 48 ------- 0 3.0 5.0 26 26
- 1.099904 3 0 cbr 48 ------- 0 3.0 5.0 29 29
- 1.100581 1 5 cbr 48 ------- 0 3.0 5.0 26 26
r 1.104104 3 0 cbr 1000 ------- 0 3.0 5.0 27 27
+ 1.104104 0 1 cbr 1000 ------- 0 3.0 5.0 27 27
- 1.104104 0 1 cbr 1000 ------- 0 3.0 5.0 27 27
r 1.104781 1 5 cbr 1000 ------- 0 3.0 5.0 24 24
r 1.104904 3 0 cbr 1000 ------- 0 3.0 5.0 28 28
+ 1.104904 0 1 cbr 1000 ------- 0 3.0 5.0 28 28
- 1.104904 0 1 cbr 1000 ------- 0 3.0 5.0 28 28
r 1.104942 3 0 cbr 48 ------- 0 3.0 5.0 29 29
+ 1.104942 0 1 cbr 48 ------- 0 3.0 5.0 29 29
r 1.105581 1 5 cbr 1000 ------- 0 3.0 5.0 25 25
r 1.10562 1 5 cbr 48 ------- 0 3.0 5.0 26 26
- 1.105704 0 1 cbr 48 ------- 0 3.0 5.0 29 29
+ 1.109227 3 0 cbr 1000 ------- 0 3.0 5.0 30 30
- 1.109227 3 0 cbr 1000 ------- 0 3.0 5.0 30 30
+ 1.109227 3 0 cbr 1000 ------- 0 3.0 5.0 31 31
+ 1.109227 3 0 cbr 48 ------- 0 3.0 5.0 32 32
r 1.109904 0 1 cbr 1000 ------- 0 3.0 5.0 27 27
+ 1.109904 1 5 cbr 1000 ------- 0 3.0 5.0 27 27
- 1.109904 1 5 cbr 1000 ------- 0 3.0 5.0 27 27
- 1.110027 3 0 cbr 1000 ------- 0 3.0 5.0 31 31
r 1.110704 0 1 cbr 1000 ------- 0 3.0 5.0 28 28
+ 1.110704 1 5 cbr 1000 ------- 0 3.0 5.0 28 28
- 1.110704 1 5 cbr 1000 ------- 0 3.0 5.0 28 28
r 1.110742 0 1 cbr 48 ------- 0 3.0 5.0 29 29
+ 1.110742 1 5 cbr 48 ------- 0 3.0 5.0 29 29
- 1.110827 3 0 cbr 48 ------- 0 3.0 5.0 32 32
- 1.111504 1 5 cbr 48 ------- 0 3.0 5.0 29 29
r 1.115027 3 0 cbr 1000 ------- 0 3.0 5.0 30 30
+ 1.115027 0 1 cbr 1000 ------- 0 3.0 5.0 30 30
- 1.115027 0 1 cbr 1000 ------- 0 3.0 5.0 30 30
r 1.115704 1 5 cbr 1000 ------- 0 3.0 5.0 27 27
r 1.115827 3 0 cbr 1000 ------- 0 3.0 5.0 31 31
+ 1.115827 0 1 cbr 1000 ------- 0 3.0 5.0 31 31
- 1.115827 0 1 cbr 1000 ------- 0 3.0 5.0 31 31
r 1.115865 3 0 cbr 48 ------- 0 3.0 5.0 32 32
+ 1.115865 0 1 cbr 48 ------- 0 3.0 5.0 32 32
r 1.116504 1 5 cbr 1000 ------- 0 3.0 5.0 28 28
r 1.116542 1 5 cbr 48 ------- 0 3.0 5.0 29 29
- 1.116627 0 1 cbr 48 ------- 0 3.0 5.0 32 32
+ 1.120149 3 0 cbr 1000 ------- 0 3.0 5.0 33 33
- 1.120149 3 0 cbr 1000 ------- 0 3.0 5.0 33 33
+ 1.120149 3 0 cbr 1000 ------- 0 3.0 5.0 34 34
+ 1.120149 3 0 cbr 48 ------- 0 3.0 5.0 35 35
r 1.120827 0 1 cbr 1000 ------- 0 3.0 5.0 30 30
+ 1.120827 1 5 cbr 1000 ------- 0 3.0 5.0 30 30
- 1.120827 1 5 cbr 1000 ------- 0 3.0 5.0 30 30
- 1.120949 3 0 cbr 1000 ------- 0 3.0 5.0 34 34
r 1.121627 0 1 cbr 1000 ------- 0 3.0 5.0 31 31
+ 1.121627 1 5 cbr 1000 ------- 0 3.0 5.0 31 31
- 1.121627 1 5 cbr 1000 ------- 0 3.0 5.0 31 31
r 1.121665 0 1 cbr 48 ------- 0 3.0 5.0 32 32
+ 1.121665 1 5 cbr 48 ------- 0 3.0 5.0 32 32
- 1.121749 3 0 cbr 48 ------- 0 3.0 5.0 35 35
- 1.122427 1 5 cbr 48 ------- 0 3.0 5.0 32 32
r 1.125949 3 0 cbr 1000 ------- 0 3.0 5.0 33 33
+ 1.125949 0 1 cbr 1000 ------- 0 3.0 5.0 33 33
- 1.125949 0 1 cbr 1000 ------- 0 3.0 5.0 33 33
r 1.126627 1 5 cbr 1000 ------- 0 3.0 5.0 30 30
r 1.126749 3 0 cbr 1000 ------- 0 3.0 5.0 34 34
+ 1.126749 0 1 cbr 1000 ------- 0 3.0 5.0 34 34
- 1.126749 0 1 cbr 1000 ------- 0 3.0 5.0 34 34
r 1.126788 3 0 cbr 48 ------- 0 3.0 5.0 35 35
+ 1.126788 0 1 cbr 48 ------- 0 3.0 5.0 35 35
r 1.127427 1 5 cbr 1000 ------- 0 3.0 5.0 31 31
r 1.127465 1 5 cbr 48 ------- 0 3.0 5.0 32 32
- 1.127549 0 1 cbr 48 ------- 0 3.0 5.0 35 35
+ 1.131072 3 0 cbr 1000 ------- 0 3.0 5.0 36 36
- 1.131072 3 0 cbr 1000 ------- 0 3.0 5.0 36 36
+ 1.131072 3 0 cbr 1000 ------- 0 3.0 5.0 37 37
+ 1.131072 3 0 cbr 48 ------- 0 3.0 5.0 38 38
r 1.131749 0 1 cbr 1000 ------- 0 3.0 5.0 33 33
+ 1.131749 1 5 cbr 1000 ------- 0 3.0 5.0 33 33
- 1.131749 1 5 cbr 1000 ------- 0 3.0 5.0 33 33
- 1.131872 3 0 cbr 1000 ------- 0 3.0 5.0 37 37
r 1.132549 0 1 cbr 1000 ------- 0 3.0 5.0 34 34
+ 1.132549 1 5 cbr 1000 ------- 0 3.0 5.0 34 34
- 1.132549 1 5 cbr 1000 ------- 0 3.0 5.0 34 34
r 1.132588 0 1 cbr 48 ------- 0 3.0 5.0 35 35
+ 1.132588 1 5 cbr 48 ------- 0 3.0 5.0 35 35
- 1.132672 3 0 cbr 48 ------- 0 3.0 5.0 38 38
- 1.133349 1 5 cbr 48 ------- 0 3.0 5.0 35 35
r 1.136872 3 0 cbr 1000 ------- 0 3.0 5.0 36 36
+ 1.136872 0 1 cbr 1000 ------- 0 3.0 5.0 36 36
- 1.136872 0 1 cbr 1000 ------- 0 3.0 5.0 36 36
r 1.137549 1 5 cbr 1000 ------- 0 3.0 5.0 33 33
r 1.137672 3 0 cbr 1000 ------- 0 3.0 5.0 37 37
+ 1.137672 0 1 cbr 1000 ------- 0 3.0 5.0 37 37
- 1.137672 0 1 cbr 1000 ------- 0 3.0 5.0 37 37
r 1.13771 3 0 cbr 48 ------- 0 3.0 5.0 38 38
+ 1.13771 0 1 cbr 48 ------- 0 3.0 5.0 38 38
r 1.138349 1 5 cbr 1000 ------- 0 3.0 5.0 34 34
r 1.138388 1 5 cbr 48 ------- 0 3.0 5.0 35 35
- 1.138472 0 1 cbr 48 ------- 0 3.0 5.0 38 38
+ 1.141995 3 0 cbr 1000 ------- 0 3.0 5.0 39 39
- 1.141995 3 0 cbr 1000 ------- 0 3.0 5.0 39 39
+ 1.141995 3 0 cbr 1000 ------- 0 3.0 5.0 40 40
+ 1.141995 3 0 cbr 48 ------- 0 3.0 5.0 41 41
r 1.142672 0 1 cbr 1000 ------- 0 3.0 5.0 36 36
+ 1.142672 1 5 cbr 1000 ------- 0 3.0 5.0 36 36
- 1.142672 1 5 cbr 1000 ------- 0 3.0 5.0 36 36
- 1.142795 3 0 cbr 1000 ------- 0 3.0 5.0 40 40
r 1.143472 0 1 cbr 1000 ------- 0 3.0 5.0 37 37
+ 1.143472 1 5 cbr 1000 ------- 0 3.0 5.0 37 37
- 1.143472 1 5 cbr 1000 ------- 0 3.0 5.0 37 37
r 1.14351 0 1 cbr 48 ------- 0 3.0 5.0 38 38
+ 1.14351 1 5 cbr 48 ------- 0 3.0 5.0 38 38
- 1.143595 3 0 cbr 48 ------- 0 3.0 5.0 41 41
- 1.144272 1 5 cbr 48 ------- 0 3.0 5.0 38 38
r 1.147795 3 0 cbr 1000 ------- 0 3.0 5.0 39 39
+ 1.147795 0 1 cbr 1000 ------- 0 3.0 5.0 39 39
- 1.147795 0 1 cbr 1000 ------- 0 3.0 5.0 39 39
r 1.148472 1 5 cbr 1000 ------- 0 3.0 5.0 36 36
r 1.148595 3 0 cbr 1000 ------- 0 3.0 5.0 40 40
+ 1.148595 0 1 cbr 1000 ------- 0 3.0 5.0 40 40
- 1.148595 0 1 cbr 1000 ------- 0 3.0 5.0 40 40
r 1.148633 3 0 cbr 48 ------- 0 3.0 5.0 41 41
+ 1.148633 0 1 cbr 48 ------- 0 3.0 5.0 41 41
r 1.149272 1 5 cbr 1000 ------- 0 3.0 5.0 37 37
r 1.14931 1 5 cbr 48 ------- 0 3.0 5.0 38 38
- 1.149395 0 1 cbr 48 ------- 0 3.0 5.0 41 41
+ 1.152917 3 0 cbr 1000 ------- 0 3.0 5.0 42 42
- 1.152917 3 0 cbr 1000 ------- 0 3.0 5.0 42 42
+ 1.152917 3 0 cbr 1000 ------- 0 3.0 5.0 43 43
+ 1.152917 3 0 cbr 48 ------- 0 3.0 5.0 44 44
r 1.153595 0 1 cbr 1000 ------- 0 3.0 5.0 39 39
+ 1.153595 1 5 cbr 1000 ------- 0 3.0 5.0 39 39
- 1.153595 1 5 cbr 1000 ------- 0 3.0 5.0 39 39
- 1.153717 3 0 cbr 1000 ------- 0 3.0 5.0 43 43
r 1.154395 0 1 cbr 1000 ------- 0 3.0 5.0 40 40
+ 1.154395 1 5 cbr 1000 ------- 0 3.0 5.0 40 40
- 1.154395 1 5 cbr 1000 ------- 0 3.0 5.0 40 40
r 1.154433 0 1 cbr 48 ------- 0 3.0 5.0 41 41
+ 1.154433 1 5 cbr 48 ------- 0 3.0 5.0 41 41
- 1.154517 3 0 cbr 48 ------- 0 3.0 5.0 44 44
- 1.155195 1 5 cbr 48 ------- 0 3.0 5.0 41 41
r 1.158717 3 0 cbr 1000 ------- 0 3.0 5.0 42 42
+ 1.158717 0 1 cbr 1000 ------- 0 3.0 5.0 42 42
- 1.158717 0 1 cbr 1000 ------- 0 3.0 5.0 42 42
r 1.159395 1 5 cbr 1000 ------- 0 3.0 5.0 39 39
r 1.159517 3 0 cbr 1000 ------- 0 3.0 5.0 43 43
+ 1.159517 0 1 cbr 1000 ------- 0 3.0 5.0 43 43
- 1.159517 0 1 cbr 1000 ------- 0 3.0 5.0 43 43
r 1.159556 3 0 cbr 48 ------- 0 3.0 5.0 44 44
+ 1.159556 0 1 cbr 48 ------- 0 3.0 5.0 44 44
r 1.160195 1 5 cbr 1000 ------- 0 3.0 5.0 40 40
r 1.160233 1 5 cbr 48 ------- 0 3.0 5.0 41 41
- 1.160317 0 1 cbr 48 ------- 0 3.0 5.0 44 44
+ 1.16384 3 0 cbr 1000 ------- 0 3.0 5.0 45 45
- 1.16384 3 0 cbr 1000 ------- 0 3.0 5.0 45 45
+ 1.16384 3 0 cbr 1000 ------- 0 3.0 5.0 46 46
+ 1.16384 3 0 cbr 48 ------- 0 3.0 5.0 47 47
r 1.164517 0 1 cbr 1000 ------- 0 3.0 5.0 42 42
+ 1.164517 1 5 cbr 1000 ------- 0 3.0 5.0 42 42
- 1.164517 1 5 cbr 1000 ------- 0 3.0 5.0 42 42
- 1.16464 3 0 cbr 1000 ------- 0 3.0 5.0 46 46
r 1.165317 0 1 cbr 1000 ------- 0 3.0 5.0 43 43
+ 1.165317 1 5 cbr 1000 ------- 0 3.0 5.0 43 43
- 1.165317 1 5 cbr 1000 ------- 0 3.0 5.0 43 43
r 1.165356 0 1 cbr 48 ------- 0 3.0 5.0 44 44
+ 1.165356 1 5 cbr 48 ------- 0 3.0 5.0 44 44
- 1.16544 3 0 cbr 48 ------- 0 3.0 5.0 47 47
- 1.166117 1 5 cbr 48 ------- 0 3.0 5.0 44 44
r 1.16964 3 0 cbr 1000 ------- 0 3.0 5.0 45 45
+ 1.16964 0 1 cbr 1000 ------- 0 3.0 5.0 45 45
- 1.16964 0 1 cbr 1000 ------- 0 3.0 5.0 45 45
r 1.170317 1 5 cbr 1000 ------- 0 3.0 5.0 42 42
r 1.17044 3 0 cbr 1000 ------- 0 3.0 5.0 46 46
+ 1.17044 0 1 cbr 1000 ------- 0 3.0 5.0 46 46
- 1.17044 0 1 cbr 1000 ------- 0 3.0 5.0 46 46
r 1.170478 3 0 cbr 48 ------- 0 3.0 5.0 47 47
+ 1.170478 0 1 cbr 48 ------- 0 3.0 5.0 47 47
r 1.171117 1 5 cbr 1000 ------- 0 3.0 5.0 43 43
r 1.171156 1 5 cbr 48 ------- 0 3.0 5.0 44 44
- 1.17124 0 1 cbr 48 ------- 0 3.0 5.0 47 47
+ 1.174763 3 0 cbr 1000 ------- 0 3.0 5.0 48 48
- 1.174763 3 0 cbr 1000 ------- 0 3.0 5.0 48 48
+ 1.174763 3 0 cbr 1000 ------- 0 3.0 5.0 49 49
+ 1.174763 3 0 cbr 48 ------- 0 3.0 5.0 50 50
r 1.17544 0 1 cbr 1000 ------- 0 3.0 5.0 45 45
+ 1.17544 1 5 cbr 1000 ------- 0 3.0 5.0 45 45
- 1.17544 1 5 cbr 1000 ------- 0 3.0 5.0 45 45
- 1.175563 3 0 cbr 1000 ------- 0 3.0 5.0 49 49
r 1.17624 0 1 cbr 1000 ------- 0 3.0 5.0 46 46
+ 1.17624 1 5 cbr 1000 ------- 0 3.0 5.0 46 46
- 1.17624 1 5 cbr 1000 ------- 0 3.0 5.0 46 46
r 1.176278 0 1 cbr 48 ------- 0 3.0 5.0 47 47
+ 1.176278 1 5 cbr 48 ------- 0 3.0 5.0 47 47
- 1.176363 3 0 cbr 48 ------- 0 3.0 5.0 50 50
- 1.17704 1 5 cbr 48 ------- 0 3.0 5.0 47 47
r 1.180563 3 0 cbr 1000 ------- 0 3.0 5.0 48 48
+ 1.180563 0 1 cbr 1000 ------- 0 3.0 5.0 48 48
- 1.180563 0 1 cbr 1000 ------- 0 3.0 5.0 48 48
r 1.18124 1 5 cbr 1000 ------- 0 3.0 5.0 45 45
r 1.181363 3 0 cbr 1000 ------- 0 3.0 5.0 49 49
+ 1.181363 0 1 cbr 1000 ------- 0 3.0 5.0 49 49
- 1.181363 0 1 cbr 1000 ------- 0 3.0 5.0 49 49
r 1.181401 3 0 cbr 48 ------- 0 3.0 5.0 50 50
+ 1.181401 0 1 cbr 48 ------- 0 3.0 5.0 50 50
r 1.18204 1 5 cbr 1000 ------- 0 3.0 5.0 46 46
r 1.182078 1 5 cbr 48 ------- 0 3.0 5.0 47 47
- 1.182163 0 1 cbr 48 ------- 0 3.0 5.0 50 50
+ 1.185685 3 0 cbr 1000 ------- 0 3.0 5.0 51 51
- 1.185685 3 0 cbr 1000 ------- 0 3.0 5.0 51 51
+ 1.185685 3 0 cbr 1000 ------- 0 3.0 5.0 52 52
+ 1.185685 3 0 cbr 48 ------- 0 3.0 5.0 53 53
r 1.186363 0 1 cbr 1000 ------- 0 3.0 5.0 48 48
+ 1.186363 1 5 cbr 1000 ------- 0 3.0 5.0 48 48
- 1.186363 1 5 cbr 1000 ------- 0 3.0 5.0 48 48
- 1.186485 3 0 cbr 1000 ------- 0 3.0 5.0 52 52
r 1.187163 0 1 cbr 1000 ------- 0 3.0 5.0 49 49
+ 1.187163 1 5 cbr 1000 ------- 0 3.0 5.0 49 49
- 1.187163 1 5 cbr 1000 ------- 0 3.0 5.0 49 49
r 1.187201 0 1 cbr 48 ------- 0 3.0 5.0 50 50
+ 1.187201 1 5 cbr 48 ------- 0 3.0 5.0 50 50
- 1.187285 3 0 cbr 48 ------- 0 3.0 5.0 53 53
- 1.187963 1 5 cbr 48 ------- 0 3.0 5.0 50 50
r 1.191485 3 0 cbr 1000 ------- 0 3.0 5.0 51 51
+ 1.191485 0 1 cbr 1000 ------- 0 3.0 5.0 51 51
- 1.191485 0 1 cbr 1000 ------- 0 3.0 5.0 51 51
r 1.192163 1 5 cbr 1000 ------- 0 3.0 5.0 48 48
r 1.192285 3 0 cbr 1000 ------- 0 3.0 5.0 52 52
+ 1.192285 0 1 cbr 1000 ------- 0 3.0 5.0 52 52
- 1.192285 0 1 cbr 1000 ------- 0 3.0 5.0 52 52
r 1.192324 3 0 cbr 48 ------- 0 3.0 5.0 53 53
+ 1.192324 0 1 cbr 48 ------- 0 3.0 5.0 53 53
r 1.192963 1 5 cbr 1000 ------- 0 3.0 5.0 49 49
r 1.193001 1 5 cbr 48 ------- 0 3.0 5.0 50 50
- 1.193085 0 1 cbr 48 ------- 0 3.0 5.0 53 53
+ 1.196608 3 0 cbr 1000 ------- 0 3.0 5.0 54 54
- 1.196608 3 0 cbr 1000 ------- 0 3.0 5.0 54 54
+ 1.196608 3 0 cbr 1000 ------- 0 3.0 5.0 55 55
+ 1.196608 3 0 cbr 48 ------- 0 3.0 5.0 56 56
r 1.197285 0 1 cbr 1000 ------- 0 3.0 5.0 51 51
+ 1.197285 1 5 cbr 1000 ------- 0 3.0 5.0 51 51
- 1.197285 1 5 cbr 1000 ------- 0 3.0 5.0 51 51
- 1.197408 3 0 cbr 1000 ------- 0 3.0 5.0 55 55
r 1.198085 0 1 cbr 1000 ------- 0 3.0 5.0 52 52
+ 1.198085 1 5 cbr 1000 ------- 0 3.0 5.0 52 52
- 1.198085 1 5 cbr 1000 ------- 0 3.0 5.0 52 52
r 1.198124 0 1 cbr 48 ------- 0 3.0 5.0 53 53
+ 1.198124 1 5 cbr 48 ------- 0 3.0 5.0 53 53
- 1.198208 3 0 cbr 48 ------- 0 3.0 5.0 56 56
- 1.198885 1 5 cbr 48 ------- 0 3.0 5.0 53 53
r 1.202408 3 0 cbr 1000 ------- 0 3.0 5.0 54 54
+ 1.202408 0 1 cbr 1000 ------- 0 3.0 5.0 54 54
- 1.202408 0 1 cbr 1000 ------- 0 3.0 5.0 54 54
r 1.203085 1 5 cbr 1000 ------- 0 3.0 5.0 51 51
r 1.203208 3 0 cbr 1000 ------- 0 3.0 5.0 55 55
+ 1.203208 0 1 cbr 1000 ------- 0 3.0 5.0 55 55
- 1.203208 0 1 cbr 1000 ------- 0 3.0 5.0 55 55
r 1.203246 3 0 cbr 48 ------- 0 3.0 5.0 56 56
+ 1.203246 0 1 cbr 48 ------- 0 3.0 5.0 56 56
r 1.203885 1 5 cbr 1000 ------- 0 3.0 5.0 52 52
r 1.203924 1 5 cbr 48 ------- 0 3.0 5.0 53 53
- 1.204008 0 1 cbr 48 ------- 0 3.0 5.0 56 56
+ 1.207531 3 0 cbr 1000 ------- 0 3.0 5.0 57 57
- 1.207531 3 0 cbr 1000 ------- 0 3.0 5.0 57 57
+ 1.207531 3 0 cbr 1000 ------- 0 3.0 5.0 58 58
+ 1.207531 3 0 cbr 48 ------- 0 3.0 5.0 59 59
r 1.208208 0 1 cbr 1000 ------- 0 3.0 5.0 54 54
+ 1.208208 1 5 cbr 1000 ------- 0 3.0 5.0 54 54
- 1.208208 1 5 cbr 1000 ------- 0 3.0 5.0 54 54
- 1.208331 3 0 cbr 1000 ------- 0 3.0 5.0 58 58
r 1.209008 0 1 cbr 1000 ------- 0 3.0 5.0 55 55
+ 1.209008 1 5 cbr 1000 ------- 0 3.0 5.0 55 55
- 1.209008 1 5 cbr 1000 ------- 0 3.0 5.0 55 55
r 1.209046 0 1 cbr 48 ------- 0 3.0 5.0 56 56
+ 1.209046 1 5 cbr 48 ------- 0 3.0 5.0 56 56
- 1.209131 3 0 cbr 48 ------- 0 3.0 5.0 59 59
- 1.209808 1 5 cbr 48 ------- 0 3.0 5.0 56 56
r 1.213331 3 0 cbr 1000 ------- 0 3.0 5.0 57 57
+ 1.213331 0 1 cbr 1000 ------- 0 3.0 5.0 57 57
- 1.213331 0 1 cbr 1000 ------- 0 3.0 5.0 57 57
r 1.214008 1 5 cbr 1000 ------- 0 3.0 5.0 54 54
r 1.214131 3 0 cbr 1000 ------- 0 3.0 5.0 58 58
+ 1.214131 0 1 cbr 1000 ------- 0 3.0 5.0 58 58
- 1.214131 0 1 cbr 1000 ------- 0 3.0 5.0 58 58
r 1.214169 3 0 cbr 48 ------- 0 3.0 5.0 59 59
+ 1.214169 0 1 cbr 48 ------- 0 3.0 5.0 59 59
r 1.214808 1 5 cbr 1000 ------- 0 3.0 5.0 55 55
r 1.214846 1 5 cbr 48 ------- 0 3.0 5.0 56 56
- 1.214931 0 1 cbr 48 ------- 0 3.0 5.0 59 59
+ 1.218453 3 0 cbr 1000 ------- 0 3.0 5.0 60 60
- 1.218453 3 0 cbr 1000 ------- 0 3.0 5.0 60 60
+ 1.218453 3 0 cbr 1000 ------- 0 3.0 5.0 61 61
+ 1.218453 3 0 cbr 48 ------- 0 3.0 5.0 62 62
r 1.219131 0 1 cbr 1000 ------- 0 3.0 5.0 57 57
+ 1.219131 1 5 cbr 1000 ------- 0 3.0 5.0 57 57
- 1.219131 1 5 cbr 1000 ------- 0 3.0 5.0 57 57
- 1.219253 3 0 cbr 1000 ------- 0 3.0 5.0 61 61
r 1.219931 0 1 cbr 1000 ------- 0 3.0 5.0 58 58
+ 1.219931 1 5 cbr 1000 ------- 0 3.0 5.0 58 58
- 1.219931 1 5 cbr 1000 ------- 0 3.0 5.0 58 58
r 1.219969 0 1 cbr 48 ------- 0 3.0 5.0 59 59
+ 1.219969 1 5 cbr 48 ------- 0 3.0 5.0 59 59
- 1.220053 3 0 cbr 48 ------- 0 3.0 5.0 62 62
- 1.220731 1 5 cbr 48 ------- 0 3.0 5.0 59 59
r 1.224253 3 0 cbr 1000 ------- 0 3.0 5.0 60 60
+ 1.224253 0 1 cbr 1000 ------- 0 3.0 5.0 60 60
- 1.224253 0 1 cbr 1000 ------- 0 3.0 5.0 60 60
r 1.224931 1 5 cbr 1000 ------- 0 3.0 5.0 57 57
r 1.225053 3 0 cbr 1000 ------- 0 3.0 5.0 61 61
+ 1.225053 0 1 cbr 1000 ------- 0 3.0 5.0 61 61
- 1.225053 0 1 cbr 1000 ------- 0 3.0 5.0 61 61
r 1.225092 3 0 cbr 48 ------- 0 3.0 5.0 62 62
+ 1.225092 0 1 cbr 48 ------- 0 3.0 5.0 62 62
r 1.225731 1 5 cbr 1000 ------- 0 3.0 5.0 58 58
r 1.225769 1 5 cbr 48 ------- 0 3.0 5.0 59 59
- 1.225853 0 1 cbr 48 ------- 0 3.0 5.0 62 62
+ 1.229376 3 0 cbr 1000 ------- 0 3.0 5.0 63 63
- 1.229376 3 0 cbr 1000 ------- 0 3.0 5.0 63 63
+ 1.229376 3 0 cbr 1000 ------- 0 3.0 5.0 64 64
+ 1.229376 3 0 cbr 48 ------- 0 3.0 5.0 65 65
r 1.230053 0 1 cbr 1000 ------- 0 3.0 5.0 60 60
+ 1.230053 1 5 cbr 1000 ------- 0 3.0 5.0 60 60
- 1.230053 1 5 cbr 1000 ------- 0 3.0 5.0 60 60
- 1.230176 3 0 cbr 1000 ------- 0 3.0 5.0 64 64
r 1.230853 0 1 cbr 1000 ------- 0 3.0 5.0 61 61
+ 1.230853 1 5 cbr 1000 ------- 0 3.0 5.0 61 61
- 1.230853 1 5 cbr 1000 ------- 0 3.0 5.0 61 61
r 1.230892 0 1 cbr 48 ------- 0 3.0 5.0 62 62
+ 1.230892 1 5 cbr 48 ------- 0 3.0 5.0 62 62
- 1.230976 3 0 cbr 48 ------- 0 3.0 5.0 65 65
- 1.231653 1 5 cbr 48 ------- 0 3.0 5.0 62 62
r 1.235176 3 0 cbr 1000 ------- 0 3.0 5.0 63 63
+ 1.235176 0 1 cbr 1000 ------- 0 3.0 5.0 63 63
- 1.235176 0 1 cbr 1000 ------- 0 3.0 5.0 63 63
r 1.235853 1 5 cbr 1000 ------- 0 3.0 5.0 60 60
r 1.235976 3 0 cbr 1000 ------- 0 3.0 5.0 64 64
+ 1.235976 0 1 cbr 1000 ------- 0 3.0 5.0 64 64
- 1.235976 0 1 cbr 1000 ------- 0 3.0 5.0 64 64
r 1.236014 3 0 cbr 48 ------- 0 3.0 5.0 65 65
+ 1.236014 0 1 cbr 48 ------- 0 3.0 5.0 65 65
r 1.236653 1 5 cbr 1000 ------- 0 3.0 5.0 61 61
r 1.236692 1 5 cbr 48 ------- 0 3.0 5.0 62 62
- 1.236776 0 1 cbr 48 ------- 0 3.0 5.0 65 65
+ 1.240299 3 0 cbr 1000 ------- 0 3.0 5.0 66 66
- 1.240299 3 0 cbr 1000 ------- 0 3.0 5.0 66 66
+ 1.240299 3 0 cbr 1000 ------- 0 3.0 5.0 67 67
+ 1.240299 3 0 cbr 48 ------- 0 3.0 5.0 68 68
r 1.240976 0 1 cbr 1000 ------- 0 3.0 5.0 63 63
+ 1.240976 1 5 cbr 1000 ------- 0 3.0 5.0 63 63
- 1.240976 1 5 cbr 1000 ------- 0 3.0 5.0 63 63
- 1.241099 3 0 cbr 1000 ------- 0 3.0 5.0 67 67
r 1.241776 0 1 cbr 1000 ------- 0 3.0 5.0 64 64
+ 1.241776 1 5 cbr 1000 ------- 0 3.0 5.0 64 64
- 1.241776 1 5 cbr 1000 ------- 0 3.0 5.0 64 64
r 1.241814 0 1 cbr 48 ------- 0 3.0 5.0 65 65
+ 1.241814 1 5 cbr 48 ------- 0 3.0 5.0 65 65
- 1.241899 3 0 cbr 48 ------- 0 3.0 5.0 68 68
- 1.242576 1 5 cbr 48 ------- 0 3.0 5.0 65 65
r 1.246099 3 0 cbr 1000 ------- 0 3.0 5.0 66 66
+ 1.246099 0 1 cbr 1000 ------- 0 3.0 5.0 66 66
- 1.246099 0 1 cbr 1000 ------- 0 3.0 5.0 66 66
r 1.246776 1 5 cbr 1000 ------- 0 3.0 5.0 63 63
r 1.246899 3 0 cbr 1000 ------- 0 3.0 5.0 67 67
+ 1.246899 0 1 cbr 1000 ------- 0 3.0 5.0 67 67
- 1.246899 0 1 cbr 1000 ------- 0 3.0 5.0 67 67
r 1.246937 3 0 cbr 48 ------- 0 3.0 5.0 68 68
+ 1.246937 0 1 cbr 48 ------- 0 3.0 5.0 68 68
r 1.247576 1 5 cbr 1000 ------- 0 3.0 5.0 64 64
r 1.247614 1 5 cbr 48 ------- 0 3.0 5.0 65 65
- 1.247699 0 1 cbr 48 ------- 0 3.0 5.0 68 68
+ 1.251221 3 0 cbr 1000 ------- 0 3.0 5.0 69 69
- 1.251221 3 0 cbr 1000 ------- 0 3.0 5.0 69 69
+ 1.251221 3 0 cbr 1000 ------- 0 3.0 5.0 70 70
+ 1.251221 3 0 cbr 48 ------- 0 3.0 5.0 71 71
r 1.251899 0 1 cbr 1000 ------- 0 3.0 5.0 66 66
+ 1.251899 1 5 cbr 1000 ------- 0 3.0 5.0 66 66
- 1.251899 1 5 cbr 1000 ------- 0 3.0 5.0 66 66
- 1.252021 3 0 cbr 1000 ------- 0 3.0 5.0 70 70
r 1.252699 0 1 cbr 1000 ------- 0 3.0 5.0 67 67
+ 1.252699 1 5 cbr 1000 ------- 0 3.0 5.0 67 67
- 1.252699 1 5 cbr 1000 ------- 0 3.0 5.0 67 67
r 1.252737 0 1 cbr 48 ------- 0 3.0 5.0 68 68
+ 1.252737 1 5 cbr 48 ------- 0 3.0 5.0 68 68
- 1.252821 3 0 cbr 48 ------- 0 3.0 5.0 71 71
- 1.253499 1 5 cbr 48 ------- 0 3.0 5.0 68 68
r 1.257021 3 0 cbr 1000 ------- 0 3.0 5.0 69 69
+ 1.257021 0 1 cbr 1000 ------- 0 3.0 5.0 69 69
- 1.257021 0 1 cbr 1000 ------- 0 3.0 5.0 69 69
r 1.257699 1 5 cbr 1000 ------- 0 3.0 5.0 66 66
r 1.257821 3 0 cbr 1000 ------- 0 3.0 5.0 70 70
+ 1.257821 0 1 cbr 1000 ------- 0 3.0 5.0 70 70
- 1.257821 0 1 cbr 1000 ------- 0 3.0 5.0 70 70
r 1.25786 3 0 cbr 48 ------- 0 3.0 5.0 71 71
+ 1.25786 0 1 cbr 48 ------- 0 3.0 5.0 71 71
r 1.258499 1 5 cbr 1000 ------- 0 3.0 5.0 67 67
r 1.258537 1 5 cbr 48 ------- 0 3.0 5.0 68 68
- 1.258621 0 1 cbr 48 ------- 0 3.0 5.0 71 71
+ 1.262144 3 0 cbr 1000 ------- 0 3.0 5.0 72 72
- 1.262144 3 0 cbr 1000 ------- 0 3.0 5.0 72 72
+ 1.262144 3 0 cbr 1000 ------- 0 3.0 5.0 73 73