+ 0.4 0 1 encap 230 ------- 0 0.2 4.0 -1 1
- 0.4 0 1 encap 230 ------- 0 0.2 4.0 -1 1
+ 0.40375 0 1 encap 230 ------- 0 0.2 4.0 -1 3
- 0.406133 0 1 encap 230 ------- 0 0.2 4.0 -1 3
+ 0.4075 0 1 encap 230 ------- 0 0.2 4.0 -1 5
+ 0.41125 0 1 encap 230 ------- 0 0.2 4.0 -1 7
- 0.412267 0 1 encap 230 ------- 0 0.2 4.0 -1 5
+ 0.415 0 1 encap 230 ------- 0 0.2 4.0 -1 9
r 0.416133 0 1 encap 230 ------- 0 0.2 4.0 -1 1
+ 0.416133 1 4 encap 230 ------- 0 0.2 4.0 -1 1
- 0.416133 1 4 encap 230 ------- 0 0.2 4.0 -1 1
- 0.4184 0 1 encap 230 ------- 0 0.2 4.0 -1 7
+ 0.41875 0 1 encap 230 ------- 0 0.2 4.0 -1 11
r 0.422267 0 1 encap 230 ------- 0 0.2 4.0 -1 3
+ 0.422267 1 4 encap 230 ------- 0 0.2 4.0 -1 3
- 0.422267 1 4 encap 230 ------- 0 0.2 4.0 -1 3
+ 0.4225 0 1 encap 230 ------- 0 0.2 4.0 -1 13
- 0.424533 0 1 encap 230 ------- 0 0.2 4.0 -1 9
+ 0.42625 0 1 encap 230 ------- 0 0.2 4.0 -1 15
r 0.4284 0 1 encap 230 ------- 0 0.2 4.0 -1 5
+ 0.4284 1 4 encap 230 ------- 0 0.2 4.0 -1 5
- 0.4284 1 4 encap 230 ------- 0 0.2 4.0 -1 5
+ 0.43 0 1 encap 230 ------- 0 0.2 4.0 -1 17
- 0.430667 0 1 encap 230 ------- 0 0.2 4.0 -1 11
r 0.432267 1 4 encap 230 ------- 0 0.2 4.0 -1 1
+ 0.43375 0 1 encap 230 ------- 0 0.2 4.0 -1 19
r 0.434533 0 1 encap 230 ------- 0 0.2 4.0 -1 7
+ 0.434533 1 4 encap 230 ------- 0 0.2 4.0 -1 7
- 0.434533 1 4 encap 230 ------- 0 0.2 4.0 -1 7
- 0.4368 0 1 encap 230 ------- 0 0.2 4.0 -1 13
+ 0.4375 0 1 encap 230 ------- 0 0.2 4.0 -1 21
r 0.4384 1 4 encap 230 ------- 0 0.2 4.0 -1 3
r 0.440667 0 1 encap 230 ------- 0 0.2 4.0 -1 9
+ 0.440667 1 4 encap 230 ------- 0 0.2 4.0 -1 9
- 0.440667 1 4 encap 230 ------- 0 0.2 4.0 -1 9
+ 0.44125 0 1 encap 230 ------- 0 0.2 4.0 -1 23
- 0.442933 0 1 encap 230 ------- 0 0.2 4.0 -1 15
r 0.444533 1 4 encap 230 ------- 0 0.2 4.0 -1 5
+ 0.445 0 1 encap 230 ------- 0 0.2 4.0 -1 25
r 0.4468 0 1 encap 230 ------- 0 0.2 4.0 -1 11
+ 0.4468 1 4 encap 230 ------- 0 0.2 4.0 -1 11
- 0.4468 1 4 encap 230 ------- 0 0.2 4.0 -1 11
+ 0.44875 0 1 encap 230 ------- 0 0.2 4.0 -1 27
- 0.449067 0 1 encap 230 ------- 0 0.2 4.0 -1 17
r 0.450667 1 4 encap 230 ------- 0 0.2 4.0 -1 7
+ 0.4525 0 1 encap 230 ------- 0 0.2 4.0 -1 29
r 0.452933 0 1 encap 230 ------- 0 0.2 4.0 -1 13
+ 0.452933 1 4 encap 230 ------- 0 0.2 4.0 -1 13
- 0.452933 1 4 encap 230 ------- 0 0.2 4.0 -1 13
- 0.4552 0 1 encap 230 ------- 0 0.2 4.0 -1 19
+ 0.45625 0 1 encap 230 ------- 0 0.2 4.0 -1 31
r 0.4568 1 4 encap 230 ------- 0 0.2 4.0 -1 9
r 0.459067 0 1 encap 230 ------- 0 0.2 4.0 -1 15
+ 0.459067 1 4 encap 230 ------- 0 0.2 4.0 -1 15
- 0.459067 1 4 encap 230 ------- 0 0.2 4.0 -1 15
+ 0.46 0 1 encap 230 ------- 0 0.2 4.0 -1 33
- 0.461333 0 1 encap 230 ------- 0 0.2 4.0 -1 21
r 0.462933 1 4 encap 230 ------- 0 0.2 4.0 -1 11
+ 0.46375 0 1 encap 230 ------- 0 0.2 4.0 -1 35
r 0.4652 0 1 encap 230 ------- 0 0.2 4.0 -1 17
+ 0.4652 1 4 encap 230 ------- 0 0.2 4.0 -1 17
- 0.4652 1 4 encap 230 ------- 0 0.2 4.0 -1 17
- 0.467467 0 1 encap 230 ------- 0 0.2 4.0 -1 23
+ 0.4675 0 1 encap 230 ------- 0 0.2 4.0 -1 37
r 0.469067 1 4 encap 230 ------- 0 0.2 4.0 -1 13
+ 0.47125 0 1 encap 230 ------- 0 0.2 4.0 -1 39
r 0.471333 0 1 encap 230 ------- 0 0.2 4.0 -1 19
+ 0.471333 1 4 encap 230 ------- 0 0.2 4.0 -1 19
- 0.471333 1 4 encap 230 ------- 0 0.2 4.0 -1 19
- 0.4736 0 1 encap 230 ------- 0 0.2 4.0 -1 25
+ 0.475 0 1 encap 230 ------- 0 0.2 4.0 -1 41
r 0.4752 1 4 encap 230 ------- 0 0.2 4.0 -1 15
r 0.477467 0 1 encap 230 ------- 0 0.2 4.0 -1 21
+ 0.477467 1 4 encap 230 ------- 0 0.2 4.0 -1 21
- 0.477467 1 4 encap 230 ------- 0 0.2 4.0 -1 21
+ 0.47875 0 1 encap 230 ------- 0 0.2 4.0 -1 43
- 0.479733 0 1 encap 230 ------- 0 0.2 4.0 -1 27
r 0.481333 1 4 encap 230 ------- 0 0.2 4.0 -1 17
+ 0.4825 0 1 encap 230 ------- 0 0.2 4.0 -1 45
r 0.4836 0 1 encap 230 ------- 0 0.2 4.0 -1 23
+ 0.4836 1 4 encap 230 ------- 0 0.2 4.0 -1 23
- 0.4836 1 4 encap 230 ------- 0 0.2 4.0 -1 23
- 0.485867 0 1 encap 230 ------- 0 0.2 4.0 -1 29
+ 0.48625 0 1 encap 230 ------- 0 0.2 4.0 -1 47
r 0.487467 1 4 encap 230 ------- 0 0.2 4.0 -1 19
r 0.489733 0 1 encap 230 ------- 0 0.2 4.0 -1 25
+ 0.489733 1 4 encap 230 ------- 0 0.2 4.0 -1 25
- 0.489733 1 4 encap 230 ------- 0 0.2 4.0 -1 25
+ 0.49 0 1 encap 230 ------- 0 0.2 4.0 -1 49
- 0.492 0 1 encap 230 ------- 0 0.2 4.0 -1 31
r 0.4936 1 4 encap 230 ------- 0 0.2 4.0 -1 21
+ 0.49375 0 1 encap 230 ------- 0 0.2 4.0 -1 51
r 0.495867 0 1 encap 230 ------- 0 0.2 4.0 -1 27
+ 0.495867 1 4 encap 230 ------- 0 0.2 4.0 -1 27
- 0.495867 1 4 encap 230 ------- 0 0.2 4.0 -1 27
+ 0.4975 0 1 encap 230 ------- 0 0.2 4.0 -1 53
- 0.498133 0 1 encap 230 ------- 0 0.2 4.0 -1 33
r 0.499733 1 4 encap 230 ------- 0 0.2 4.0 -1 23
+ 0.50125 0 1 encap 230 ------- 0 0.2 4.0 -1 55
r 0.502 0 1 encap 230 ------- 0 0.2 4.0 -1 29
+ 0.502 1 4 encap 230 ------- 0 0.2 4.0 -1 29
- 0.502 1 4 encap 230 ------- 0 0.2 4.0 -1 29
- 0.504267 0 1 encap 230 ------- 0 0.2 4.0 -1 35
+ 0.505 0 1 encap 230 ------- 0 0.2 4.0 -1 57
r 0.505867 1 4 encap 230 ------- 0 0.2 4.0 -1 25
r 0.508133 0 1 encap 230 ------- 0 0.2 4.0 -1 31
+ 0.508133 1 4 encap 230 ------- 0 0.2 4.0 -1 31
- 0.508133 1 4 encap 230 ------- 0 0.2 4.0 -1 31
+ 0.50875 0 1 encap 230 ------- 0 0.2 4.0 -1 59
- 0.5104 0 1 encap 230 ------- 0 0.2 4.0 -1 37
r 0.512 1 4 encap 230 ------- 0 0.2 4.0 -1 27
+ 0.5125 0 1 encap 230 ------- 0 0.2 4.0 -1 61
r 0.514267 0 1 encap 230 ------- 0 0.2 4.0 -1 33
+ 0.514267 1 4 encap 230 ------- 0 0.2 4.0 -1 33
- 0.514267 1 4 encap 230 ------- 0 0.2 4.0 -1 33
+ 0.51625 0 1 encap 230 ------- 0 0.2 4.0 -1 63
- 0.516533 0 1 encap 230 ------- 0 0.2 4.0 -1 39
r 0.518133 1 4 encap 230 ------- 0 0.2 4.0 -1 29
+ 0.52 0 1 encap 230 ------- 0 0.2 4.0 -1 65
r 0.5204 0 1 encap 230 ------- 0 0.2 4.0 -1 35
+ 0.5204 1 4 encap 230 ------- 0 0.2 4.0 -1 35
- 0.5204 1 4 encap 230 ------- 0 0.2 4.0 -1 35
- 0.522667 0 1 encap 230 ------- 0 0.2 4.0 -1 41
+ 0.52375 0 1 encap 230 ------- 0 0.2 4.0 -1 67
r 0.524267 1 4 encap 230 ------- 0 0.2 4.0 -1 31
r 0.526533 0 1 encap 230 ------- 0 0.2 4.0 -1 37
+ 0.526533 1 4 encap 230 ------- 0 0.2 4.0 -1 37
- 0.526533 1 4 encap 230 ------- 0 0.2 4.0 -1 37
+ 0.5275 0 1 encap 230 ------- 0 0.2 4.0 -1 69
- 0.5288 0 1 encap 230 ------- 0 0.2 4.0 -1 43
r 0.5304 1 4 encap 230 ------- 0 0.2 4.0 -1 33
+ 0.53125 0 1 encap 230 ------- 0 0.2 4.0 -1 71
r 0.532667 0 1 encap 230 ------- 0 0.2 4.0 -1 39
+ 0.532667 1 4 encap 230 ------- 0 0.2 4.0 -1 39
- 0.532667 1 4 encap 230 ------- 0 0.2 4.0 -1 39
- 0.534933 0 1 encap 230 ------- 0 0.2 4.0 -1 45
+ 0.535 0 1 encap 230 ------- 0 0.2 4.0 -1 73
r 0.536533 1 4 encap 230 ------- 0 0.2 4.0 -1 35
+ 0.53875 0 1 encap 230 ------- 0 0.2 4.0 -1 75
r 0.5388 0 1 encap 230 ------- 0 0.2 4.0 -1 41
+ 0.5388 1 4 encap 230 ------- 0 0.2 4.0 -1 41
- 0.5388 1 4 encap 230 ------- 0 0.2 4.0 -1 41
- 0.541067 0 1 encap 230 ------- 0 0.2 4.0 -1 47
+ 0.5425 0 1 encap 230 ------- 0 0.2 4.0 -1 77
r 0.542667 1 4 encap 230 ------- 0 0.2 4.0 -1 37
r 0.544933 0 1 encap 230 ------- 0 0.2 4.0 -1 43
+ 0.544933 1 4 encap 230 ------- 0 0.2 4.0 -1 43
- 0.544933 1 4 encap 230 ------- 0 0.2 4.0 -1 43
+ 0.54625 0 1 encap 230 ------- 0 0.2 4.0 -1 79
- 0.5472 0 1 encap 230 ------- 0 0.2 4.0 -1 49
r 0.5488 1 4 encap 230 ------- 0 0.2 4.0 -1 39
+ 0.55 0 1 encap 230 ------- 0 0.2 4.0 -1 81
r 0.551067 0 1 encap 230 ------- 0 0.2 4.0 -1 45
+ 0.551067 1 4 encap 230 ------- 0 0.2 4.0 -1 45
- 0.551067 1 4 encap 230 ------- 0 0.2 4.0 -1 45
- 0.553333 0 1 encap 230 ------- 0 0.2 4.0 -1 51
+ 0.55375 0 1 encap 230 ------- 0 0.2 4.0 -1 83
r 0.554933 1 4 encap 230 ------- 0 0.2 4.0 -1 41
r 0.5572 0 1 encap 230 ------- 0 0.2 4.0 -1 47
+ 0.5572 1 4 encap 230 ------- 0 0.2 4.0 -1 47
- 0.5572 1 4 encap 230 ------- 0 0.2 4.0 -1 47
+ 0.5575 0 1 encap 230 ------- 0 0.2 4.0 -1 85
- 0.559467 0 1 encap 230 ------- 0 0.2 4.0 -1 53
r 0.561067 1 4 encap 230 ------- 0 0.2 4.0 -1 43
+ 0.56125 0 1 encap 230 ------- 0 0.2 4.0 -1 87
r 0.563333 0 1 encap 230 ------- 0 0.2 4.0 -1 49
+ 0.563333 1 4 encap 230 ------- 0 0.2 4.0 -1 49
- 0.563333 1 4 encap 230 ------- 0 0.2 4.0 -1 49
+ 0.565 0 1 encap 230 ------- 0 0.2 4.0 -1 89
- 0.5656 0 1 encap 230 ------- 0 0.2 4.0 -1 55
r 0.5672 1 4 encap 230 ------- 0 0.2 4.0 -1 45
+ 0.56875 0 1 encap 230 ------- 0 0.2 4.0 -1 91
r 0.569467 0 1 encap 230 ------- 0 0.2 4.0 -1 51
+ 0.569467 1 4 encap 230 ------- 0 0.2 4.0 -1 51
- 0.569467 1 4 encap 230 ------- 0 0.2 4.0 -1 51
- 0.571733 0 1 encap 230 ------- 0 0.2 4.0 -1 57
+ 0.5725 0 1 encap 230 ------- 0 0.2 4.0 -1 93
r 0.573333 1 4 encap 230 ------- 0 0.2 4.0 -1 47
r 0.5756 0 1 encap 230 ------- 0 0.2 4.0 -1 53
+ 0.5756 1 4 encap 230 ------- 0 0.2 4.0 -1 53
- 0.5756 1 4 encap 230 ------- 0 0.2 4.0 -1 53
+ 0.57625 0 1 encap 230 ------- 0 0.2 4.0 -1 95
- 0.577867 0 1 encap 230 ------- 0 0.2 4.0 -1 59
r 0.579467 1 4 encap 230 ------- 0 0.2 4.0 -1 49
+ 0.58 0 1 encap 230 ------- 0 0.2 4.0 -1 97
r 0.581733 0 1 encap 230 ------- 0 0.2 4.0 -1 55
+ 0.581733 1 4 encap 230 ------- 0 0.2 4.0 -1 55
- 0.581733 1 4 encap 230 ------- 0 0.2 4.0 -1 55
+ 0.58375 0 1 encap 230 ------- 0 0.2 4.0 -1 99
- 0.584 0 1 encap 230 ------- 0 0.2 4.0 -1 61
r 0.5856 1 4 encap 230 ------- 0 0.2 4.0 -1 51
+ 0.5875 0 1 encap 230 ------- 0 0.2 4.0 -1 101
r 0.587867 0 1 encap 230 ------- 0 0.2 4.0 -1 57
+ 0.587867 1 4 encap 230 ------- 0 0.2 4.0 -1 57
- 0.587867 1 4 encap 230 ------- 0 0.2 4.0 -1 57
- 0.590133 0 1 encap 230 ------- 0 0.2 4.0 -1 63
+ 0.59125 0 1 encap 230 ------- 0 0.2 4.0 -1 103
r 0.591733 1 4 encap 230 ------- 0 0.2 4.0 -1 53
r 0.594 0 1 encap 230 ------- 0 0.2 4.0 -1 59
+ 0.594 1 4 encap 230 ------- 0 0.2 4.0 -1 59
- 0.594 1 4 encap 230 ------- 0 0.2 4.0 -1 59
+ 0.595 0 1 encap 230 ------- 0 0.2 4.0 -1 105
- 0.596267 0 1 encap 230 ------- 0 0.2 4.0 -1 65
r 0.597867 1 4 encap 230 ------- 0 0.2 4.0 -1 55
+ 0.59875 0 1 encap 230 ------- 0 0.2 4.0 -1 107
v 0.6 eval {set sim_annotation {0.59999999999999998 2 join-group 1073741824}}
r 0.600133 0 1 encap 230 ------- 0 0.2 4.0 -1 61
+ 0.600133 1 4 encap 230 ------- 0 0.2 4.0 -1 61
- 0.600133 1 4 encap 230 ------- 0 0.2 4.0 -1 61
- 0.6024 0 1 encap 230 ------- 0 0.2 4.0 -1 67
+ 0.6025 0 1 encap 230 ------- 0 0.2 4.0 -1 109
r 0.604 1 4 encap 230 ------- 0 0.2 4.0 -1 57
+ 0.604 4 1 cbr 210 ------- 0 0.1 1073741824.0 28 56
- 0.604 4 1 cbr 210 ------- 0 0.1 1073741824.0 28 56
+ 0.60625 0 1 encap 230 ------- 0 0.2 4.0 -1 111
r 0.606267 0 1 encap 230 ------- 0 0.2 4.0 -1 63
+ 0.606267 1 4 encap 230 ------- 0 0.2 4.0 -1 63
- 0.606267 1 4 encap 230 ------- 0 0.2 4.0 -1 63
- 0.608533 0 1 encap 230 ------- 0 0.2 4.0 -1 69
+ 0.61 0 1 encap 230 ------- 0 0.2 4.0 -1 113
r 0.610133 1 4 encap 230 ------- 0 0.2 4.0 -1 59
+ 0.610133 4 1 cbr 210 ------- 0 0.1 1073741824.0 29 58
- 0.610133 4 1 cbr 210 ------- 0 0.1 1073741824.0 29 58
r 0.6124 0 1 encap 230 ------- 0 0.2 4.0 -1 65
+ 0.6124 1 4 encap 230 ------- 0 0.2 4.0 -1 65
- 0.6124 1 4 encap 230 ------- 0 0.2 4.0 -1 65
+ 0.61375 0 1 encap 230 ------- 0 0.2 4.0 -1 115
- 0.614667 0 1 encap 230 ------- 0 0.2 4.0 -1 71
r 0.616267 1 4 encap 230 ------- 0 0.2 4.0 -1 61
+ 0.616267 4 1 cbr 210 ------- 0 0.1 1073741824.0 30 60
- 0.616267 4 1 cbr 210 ------- 0 0.1 1073741824.0 30 60
+ 0.6175 0 1 encap 230 ------- 0 0.2 4.0 -1 117
r 0.618533 0 1 encap 230 ------- 0 0.2 4.0 -1 67
+ 0.618533 1 4 encap 230 ------- 0 0.2 4.0 -1 67
- 0.618533 1 4 encap 230 ------- 0 0.2 4.0 -1 67
r 0.6196 4 1 cbr 210 ------- 0 0.1 1073741824.0 28 56
+ 0.6196 1 2 cbr 210 ------- 0 0.1 1073741824.0 28 56
- 0.6196 1 2 cbr 210 ------- 0 0.1 1073741824.0 28 56
- 0.6208 0 1 encap 230 ------- 0 0.2 4.0 -1 73
+ 0.62125 0 1 encap 230 ------- 0 0.2 4.0 -1 119
r 0.6224 1 4 encap 230 ------- 0 0.2 4.0 -1 63
+ 0.6224 4 1 cbr 210 ------- 0 0.1 1073741824.0 31 62
- 0.6224 4 1 cbr 210 ------- 0 0.1 1073741824.0 31 62
r 0.624667 0 1 encap 230 ------- 0 0.2 4.0 -1 69
+ 0.624667 1 4 encap 230 ------- 0 0.2 4.0 -1 69
- 0.624667 1 4 encap 230 ------- 0 0.2 4.0 -1 69
+ 0.625 0 1 encap 230 ------- 0 0.2 4.0 -1 121
r 0.625733 4 1 cbr 210 ------- 0 0.1 1073741824.0 29 58
+ 0.625733 1 2 cbr 210 ------- 0 0.1 1073741824.0 29 58
- 0.625733 1 2 cbr 210 ------- 0 0.1 1073741824.0 29 58
- 0.626933 0 1 encap 230 ------- 0 0.2 4.0 -1 75
r 0.628533 1 4 encap 230 ------- 0 0.2 4.0 -1 65
+ 0.628533 4 1 cbr 210 ------- 0 0.1 1073741824.0 32 64
- 0.628533 4 1 cbr 210 ------- 0 0.1 1073741824.0 32 64
+ 0.62875 0 1 encap 230 ------- 0 0.2 4.0 -1 123
r 0.6308 0 1 encap 230 ------- 0 0.2 4.0 -1 71
+ 0.6308 1 4 encap 230 ------- 0 0.2 4.0 -1 71
- 0.6308 1 4 encap 230 ------- 0 0.2 4.0 -1 71
r 0.631867 4 1 cbr 210 ------- 0 0.1 1073741824.0 30 60
+ 0.631867 1 2 cbr 210 ------- 0 0.1 1073741824.0 30 60
- 0.631867 1 2 cbr 210 ------- 0 0.1 1073741824.0 30 60
+ 0.6325 0 1 encap 230 ------- 0 0.2 4.0 -1 125
- 0.633067 0 1 encap 230 ------- 0 0.2 4.0 -1 77
r 0.634667 1 4 encap 230 ------- 0 0.2 4.0 -1 67
+ 0.634667 4 1 cbr 210 ------- 0 0.1 1073741824.0 33 66
- 0.634667 4 1 cbr 210 ------- 0 0.1 1073741824.0 33 66
r 0.6352 1 2 cbr 210 ------- 0 0.1 1073741824.0 28 56
+ 0.63625 0 1 encap 230 ------- 0 0.2 4.0 -1 127
r 0.636933 0 1 encap 230 ------- 0 0.2 4.0 -1 73
+ 0.636933 1 4 encap 230 ------- 0 0.2 4.0 -1 73
- 0.636933 1 4 encap 230 ------- 0 0.2 4.0 -1 73
r 0.638 4 1 cbr 210 ------- 0 0.1 1073741824.0 31 62
+ 0.638 1 2 cbr 210 ------- 0 0.1 1073741824.0 31 62
- 0.638 1 2 cbr 210 ------- 0 0.1 1073741824.0 31 62
- 0.6392 0 1 encap 230 ------- 0 0.2 4.0 -1 79
+ 0.64 0 1 encap 230 ------- 0 0.2 4.0 -1 129
r 0.6408 1 4 encap 230 ------- 0 0.2 4.0 -1 69
+ 0.6408 4 1 cbr 210 ------- 0 0.1 1073741824.0 34 68
- 0.6408 4 1 cbr 210 ------- 0 0.1 1073741824.0 34 68
r 0.641333 1 2 cbr 210 ------- 0 0.1 1073741824.0 29 58
r 0.643067 0 1 encap 230 ------- 0 0.2 4.0 -1 75
+ 0.643067 1 4 encap 230 ------- 0 0.2 4.0 -1 75
- 0.643067 1 4 encap 230 ------- 0 0.2 4.0 -1 75
+ 0.64375 0 1 encap 230 ------- 0 0.2 4.0 -1 131
r 0.644133 4 1 cbr 210 ------- 0 0.1 1073741824.0 32 64
+ 0.644133 1 2 cbr 210 ------- 0 0.1 1073741824.0 32 64
- 0.644133 1 2 cbr 210 ------- 0 0.1 1073741824.0 32 64
- 0.645333 0 1 encap 230 ------- 0 0.2 4.0 -1 81
r 0.646933 1 4 encap 230 ------- 0 0.2 4.0 -1 71
+ 0.646933 4 1 cbr 210 ------- 0 0.1 1073741824.0 35 70
- 0.646933 4 1 cbr 210 ------- 0 0.1 1073741824.0 35 70
r 0.647467 1 2 cbr 210 ------- 0 0.1 1073741824.0 30 60
+ 0.6475 0 1 encap 230 ------- 0 0.2 4.0 -1 133
r 0.6492 0 1 encap 230 ------- 0 0.2 4.0 -1 77
+ 0.6492 1 4 encap 230 ------- 0 0.2 4.0 -1 77
- 0.6492 1 4 encap 230 ------- 0 0.2 4.0 -1 77
r 0.650267 4 1 cbr 210 ------- 0 0.1 1073741824.0 33 66
+ 0.650267 1 2 cbr 210 ------- 0 0.1 1073741824.0 33 66
- 0.650267 1 2 cbr 210 ------- 0 0.1 1073741824.0 33 66
+ 0.65125 0 1 encap 230 ------- 0 0.2 4.0 -1 135
- 0.651467 0 1 encap 230 ------- 0 0.2 4.0 -1 83
r 0.653067 1 4 encap 230 ------- 0 0.2 4.0 -1 73
+ 0.653067 4 1 cbr 210 ------- 0 0.1 1073741824.0 36 72
- 0.653067 4 1 cbr 210 ------- 0 0.1 1073741824.0 36 72
r 0.6536 1 2 cbr 210 ------- 0 0.1 1073741824.0 31 62
+ 0.655 0 1 encap 230 ------- 0 0.2 4.0 -1 137
r 0.655333 0 1 encap 230 ------- 0 0.2 4.0 -1 79
+ 0.655333 1 4 encap 230 ------- 0 0.2 4.0 -1 79
- 0.655333 1 4 encap 230 ------- 0 0.2 4.0 -1 79
r 0.6564 4 1 cbr 210 ------- 0 0.1 1073741824.0 34 68
+ 0.6564 1 2 cbr 210 ------- 0 0.1 1073741824.0 34 68
- 0.6564 1 2 cbr 210 ------- 0 0.1 1073741824.0 34 68
- 0.6576 0 1 encap 230 ------- 0 0.2 4.0 -1 85
+ 0.65875 0 1 encap 230 ------- 0 0.2 4.0 -1 139
r 0.6592 1 4 encap 230 ------- 0 0.2 4.0 -1 75
+ 0.6592 4 1 cbr 210 ------- 0 0.1 1073741824.0 37 74
- 0.6592 4 1 cbr 210 ------- 0 0.1 1073741824.0 37 74
r 0.659733 1 2 cbr 210 ------- 0 0.1 1073741824.0 32 64
r 0.661467 0 1 encap 230 ------- 0 0.2 4.0 -1 81
+ 0.661467 1 4 encap 230 ------- 0 0.2 4.0 -1 81
- 0.661467 1 4 encap 230 ------- 0 0.2 4.0 -1 81
+ 0.6625 0 1 encap 230 ------- 0 0.2 4.0 -1 141
r 0.662533 4 1 cbr 210 ------- 0 0.1 1073741824.0 35 70
+ 0.662533 1 2 cbr 210 ------- 0 0.1 1073741824.0 35 70
- 0.662533 1 2 cbr 210 ------- 0 0.1 1073741824.0 35 70
- 0.663733 0 1 encap 230 ------- 0 0.2 4.0 -1 87
r 0.665333 1 4 encap 230 ------- 0 0.2 4.0 -1 77
+ 0.665333 4 1 cbr 210 ------- 0 0.1 1073741824.0 38 76
- 0.665333 4 1 cbr 210 ------- 0 0.1 1073741824.0 38 76
r 0.665867 1 2 cbr 210 ------- 0 0.1 1073741824.0 33 66
+ 0.66625 0 1 encap 230 ------- 0 0.2 4.0 -1 143
r 0.6676 0 1 encap 230 ------- 0 0.2 4.0 -1 83
+ 0.6676 1 4 encap 230 ------- 0 0.2 4.0 -1 83
- 0.6676 1 4 encap 230 ------- 0 0.2 4.0 -1 83
r 0.668667 4 1 cbr 210 ------- 0 0.1 1073741824.0 36 72
+ 0.668667 1 2 cbr 210 ------- 0 0.1 1073741824.0 36 72
- 0.668667 1 2 cbr 210 ------- 0 0.1 1073741824.0 36 72
- 0.669867 0 1 encap 230 ------- 0 0.2 4.0 -1 89
+ 0.67 0 1 encap 230 ------- 0 0.2 4.0 -1 145
r 0.671467 1 4 encap 230 ------- 0 0.2 4.0 -1 79
+ 0.671467 4 1 cbr 210 ------- 0 0.1 1073741824.0 39 78
- 0.671467 4 1 cbr 210 ------- 0 0.1 1073741824.0 39 78
r 0.672 1 2 cbr 210 ------- 0 0.1 1073741824.0 34 68
r 0.673733 0 1 encap 230 ------- 0 0.2 4.0 -1 85
+ 0.673733 1 4 encap 230 ------- 0 0.2 4.0 -1 85
- 0.673733 1 4 encap 230 ------- 0 0.2 4.0 -1 85
+ 0.67375 0 1 encap 230 ------- 0 0.2 4.0 -1 147
r 0.6748 4 1 cbr 210 ------- 0 0.1 1073741824.0 37 74
+ 0.6748 1 2 cbr 210 ------- 0 0.1 1073741824.0 37 74
- 0.6748 1 2 cbr 210 ------- 0 0.1 1073741824.0 37 74
- 0.676 0 1 encap 230 ------- 0 0.2 4.0 -1 91
+ 0.6775 0 1 encap 230 ------- 0 0.2 4.0 -1 149
r 0.6776 1 4 encap 230 ------- 0 0.2 4.0 -1 81
+ 0.6776 4 1 cbr 210 ------- 0 0.1 1073741824.0 40 80
- 0.6776 4 1 cbr 210 ------- 0 0.1 1073741824.0 40 80
r 0.678133 1 2 cbr 210 ------- 0 0.1 1073741824.0 35 70
r 0.679867 0 1 encap 230 ------- 0 0.2 4.0 -1 87
+ 0.679867 1 4 encap 230 ------- 0 0.2 4.0 -1 87
- 0.679867 1 4 encap 230 ------- 0 0.2 4.0 -1 87
r 0.680933 4 1 cbr 210 ------- 0 0.1 1073741824.0 38 76
+ 0.680933 1 2 cbr 210 ------- 0 0.1 1073741824.0 38 76
- 0.680933 1 2 cbr 210 ------- 0 0.1 1073741824.0 38 76
+ 0.68125 0 1 encap 230 ------- 0 0.2 4.0 -1 151
- 0.682133 0 1 encap 230 ------- 0 0.2 4.0 -1 93
r 0.683733 1 4 encap 230 ------- 0 0.2 4.0 -1 83
+ 0.683733 4 1 cbr 210 ------- 0 0.1 1073741824.0 41 82
- 0.683733 4 1 cbr 210 ------- 0 0.1 1073741824.0 41 82
r 0.684267 1 2 cbr 210 ------- 0 0.1 1073741824.0 36 72
+ 0.685 0 1 encap 230 ------- 0 0.2 4.0 -1 153
r 0.686 0 1 encap 230 ------- 0 0.2 4.0 -1 89
+ 0.686 1 4 encap 230 ------- 0 0.2 4.0 -1 89
- 0.686 1 4 encap 230 ------- 0 0.2 4.0 -1 89
r 0.687067 4 1 cbr 210 ------- 0 0.1 1073741824.0 39 78
+ 0.687067 1 2 cbr 210 ------- 0 0.1 1073741824.0 39 78
- 0.687067 1 2 cbr 210 ------- 0 0.1 1073741824.0 39 78
- 0.688267 0 1 encap 230 ------- 0 0.2 4.0 -1 95
+ 0.68875 0 1 encap 230 ------- 0 0.2 4.0 -1 155
r 0.689867 1 4 encap 230 ------- 0 0.2 4.0 -1 85
+ 0.689867 4 1 cbr 210 ------- 0 0.1 1073741824.0 42 84
- 0.689867 4 1 cbr 210 ------- 0 0.1 1073741824.0 42 84
r 0.6904 1 2 cbr 210 ------- 0 0.1 1073741824.0 37 74
r 0.692133 0 1 encap 230 ------- 0 0.2 4.0 -1 91
+ 0.692133 1 4 encap 230 ------- 0 0.2 4.0 -1 91
- 0.692133 1 4 encap 230 ------- 0 0.2 4.0 -1 91
+ 0.6925 0 1 encap 230 ------- 0 0.2 4.0 -1 157
r 0.6932 4 1 cbr 210 ------- 0 0.1 1073741824.0 40 80
+ 0.6932 1 2 cbr 210 ------- 0 0.1 1073741824.0 40 80
- 0.6932 1 2 cbr 210 ------- 0 0.1 1073741824.0 40 80
- 0.6944 0 1 encap 230 ------- 0 0.2 4.0 -1 97
r 0.696 1 4 encap 230 ------- 0 0.2 4.0 -1 87
+ 0.696 4 1 cbr 210 ------- 0 0.1 1073741824.0 43 86
- 0.696 4 1 cbr 210 ------- 0 0.1 1073741824.0 43 86
+ 0.69625 0 1 encap 230 ------- 0 0.2 4.0 -1 159
r 0.696533 1 2 cbr 210 ------- 0 0.1 1073741824.0 38 76
r 0.698267 0 1 encap 230 ------- 0 0.2 4.0 -1 93
+ 0.698267 1 4 encap 230 ------- 0 0.2 4.0 -1 93
- 0.698267 1 4 encap 230 ------- 0 0.2 4.0 -1 93
r 0.699333 4 1 cbr 210 ------- 0 0.1 1073741824.0 41 82
+ 0.699333 1 2 cbr 210 ------- 0 0.1 1073741824.0 41 82
- 0.699333 1 2 cbr 210 ------- 0 0.1 1073741824.0 41 82
+ 0.7 0 1 encap 230 ------- 0 0.2 4.0 -1 161
- 0.700533 0 1 encap 230 ------- 0 0.2 4.0 -1 99
r 0.702133 1 4 encap 230 ------- 0 0.2 4.0 -1 89
+ 0.702133 4 1 cbr 210 ------- 0 0.1 1073741824.0 44 88
- 0.702133 4 1 cbr 210 ------- 0 0.1 1073741824.0 44 88
r 0.702667 1 2 cbr 210 ------- 0 0.1 1073741824.0 39 78
+ 0.70375 0 1 encap 230 ------- 0 0.2 4.0 -1 163
r 0.7044 0 1 encap 230 ------- 0 0.2 4.0 -1 95
+ 0.7044 1 4 encap 230 ------- 0 0.2 4.0 -1 95
- 0.7044 1 4 encap 230 ------- 0 0.2 4.0 -1 95
r 0.705467 4 1 cbr 210 ------- 0 0.1 1073741824.0 42 84
+ 0.705467 1 2 cbr 210 ------- 0 0.1 1073741824.0 42 84
- 0.705467 1 2 cbr 210 ------- 0 0.1 1073741824.0 42 84
- 0.706667 0 1 encap 230 ------- 0 0.2 4.0 -1 101
+ 0.7075 0 1 encap 230 ------- 0 0.2 4.0 -1 165
r 0.708267 1 4 encap 230 ------- 0 0.2 4.0 -1 91
+ 0.708267 4 1 cbr 210 ------- 0 0.1 1073741824.0 45 90
- 0.708267 4 1 cbr 210 ------- 0 0.1 1073741824.0 45 90
r 0.7088 1 2 cbr 210 ------- 0 0.1 1073741824.0 40 80
r 0.710533 0 1 encap 230 ------- 0 0.2 4.0 -1 97
+ 0.710533 1 4 encap 230 ------- 0 0.2 4.0 -1 97
- 0.710533 1 4 encap 230 ------- 0 0.2 4.0 -1 97
+ 0.71125 0 1 encap 230 ------- 0 0.2 4.0 -1 167
r 0.7116 4 1 cbr 210 ------- 0 0.1 1073741824.0 43 86
+ 0.7116 1 2 cbr 210 ------- 0 0.1 1073741824.0 43 86
- 0.7116 1 2 cbr 210 ------- 0 0.1 1073741824.0 43 86
- 0.7128 0 1 encap 230 ------- 0 0.2 4.0 -1 103
r 0.7144 1 4 encap 230 ------- 0 0.2 4.0 -1 93
+ 0.7144 4 1 cbr 210 ------- 0 0.1 1073741824.0 46 92
- 0.7144 4 1 cbr 210 ------- 0 0.1 1073741824.0 46 92
r 0.714933 1 2 cbr 210 ------- 0 0.1 1073741824.0 41 82
+ 0.715 0 1 encap 230 ------- 0 0.2 4.0 -1 169
r 0.716667 0 1 encap 230 ------- 0 0.2 4.0 -1 99
+ 0.716667 1 4 encap 230 ------- 0 0.2 4.0 -1 99
- 0.716667 1 4 encap 230 ------- 0 0.2 4.0 -1 99
r 0.717733 4 1 cbr 210 ------- 0 0.1 1073741824.0 44 88
+ 0.717733 1 2 cbr 210 ------- 0 0.1 1073741824.0 44 88
- 0.717733 1 2 cbr 210 ------- 0 0.1 1073741824.0 44 88
+ 0.71875 0 1 encap 230 ------- 0 0.2 4.0 -1 171
- 0.718933 0 1 encap 230 ------- 0 0.2 4.0 -1 105
r 0.720533 1 4 encap 230 ------- 0 0.2 4.0 -1 95
+ 0.720533 4 1 cbr 210 ------- 0 0.1 1073741824.0 47 94
- 0.720533 4 1 cbr 210 ------- 0 0.1 1073741824.0 47 94
r 0.721067 1 2 cbr 210 ------- 0 0.1 1073741824.0 42 84
+ 0.7225 0 1 encap 230 ------- 0 0.2 4.0 -1 173
r 0.7228 0 1 encap 230 ------- 0 0.2 4.0 -1 101
+ 0.7228 1 4 encap 230 ------- 0 0.2 4.0 -1 101
- 0.7228 1 4 encap 230 ------- 0 0.2 4.0 -1 101
r 0.723867 4 1 cbr 210 ------- 0 0.1 1073741824.0 45 90
+ 0.723867 1 2 cbr 210 ------- 0 0.1 1073741824.0 45 90
- 0.723867 1 2 cbr 210 ------- 0 0.1 1073741824.0 45 90
- 0.725067 0 1 encap 230 ------- 0 0.2 4.0 -1 107
+ 0.72625 0 1 encap 230 ------- 0 0.2 4.0 -1 175
r 0.726667 1 4 encap 230 ------- 0 0.2 4.0 -1 97
+ 0.726667 4 1 cbr 210 ------- 0 0.1 1073741824.0 48 96
- 0.726667 4 1 cbr 210 ------- 0 0.1 1073741824.0 48 96
r 0.7272 1 2 cbr 210 ------- 0 0.1 1073741824.0 43 86
r 0.728933 0 1 encap 230 ------- 0 0.2 4.0 -1 103
+ 0.728933 1 4 encap 230 ------- 0 0.2 4.0 -1 103
- 0.728933 1 4 encap 230 ------- 0 0.2 4.0 -1 103
r 0.73 4 1 cbr 210 ------- 0 0.1 1073741824.0 46 92
+ 0.73 1 2 cbr 210 ------- 0 0.1 1073741824.0 46 92
- 0.73 1 2 cbr 210 ------- 0 0.1 1073741824.0 46 92
+ 0.73 0 1 encap 230 ------- 0 0.2 4.0 -1 177
- 0.7312 0 1 encap 230 ------- 0 0.2 4.0 -1 109
r 0.7328 1 4 encap 230 ------- 0 0.2 4.0 -1 99
+ 0.7328 4 1 cbr 210 ------- 0 0.1 1073741824.0 49 98
- 0.7328 4 1 cbr 210 ------- 0 0.1 1073741824.0 49 98
r 0.733333 1 2 cbr 210 ------- 0 0.1 1073741824.0 44 88
+ 0.73375 0 1 encap 230 ------- 0 0.2 4.0 -1 179
r 0.735067 0 1 encap 230 ------- 0 0.2 4.0 -1 105
+ 0.735067 1 4 encap 230 ------- 0 0.2 4.0 -1 105
- 0.735067 1 4 encap 230 ------- 0 0.2 4.0 -1 105
r 0.736133 4 1 cbr 210 ------- 0 0.1 1073741824.0 47 94
+ 0.736133 1 2 cbr 210 ------- 0 0.1 1073741824.0 47 94
- 0.736133 1 2 cbr 210 ------- 0 0.1 1073741824.0 47 94
- 0.737333 0 1 encap 230 ------- 0 0.2 4.0 -1 111
+ 0.7375 0 1 encap 230 ------- 0 0.2 4.0 -1 181
r 0.738933 1 4 encap 230 ------- 0 0.2 4.0 -1 101
+ 0.738933 4 1 cbr 210 ------- 0 0.1 1073741824.0 50 100
- 0.738933 4 1 cbr 210 ------- 0 0.1 1073741824.0 50 100
r 0.739467 1 2 cbr 210 ------- 0 0.1 1073741824.0 45 90
r 0.7412 0 1 encap 230 ------- 0 0.2 4.0 -1 107
+ 0.7412 1 4 encap 230 ------- 0 0.2 4.0 -1 107
- 0.7412 1 4 encap 230 ------- 0 0.2 4.0 -1 107
+ 0.74125 0 1 encap 230 ------- 0 0.2 4.0 -1 183
r 0.742267 4 1 cbr 210 ------- 0 0.1 1073741824.0 48 96
+ 0.742267 1 2 cbr 210 ------- 0 0.1 1073741824.0 48 96
- 0.742267 1 2 cbr 210 ------- 0 0.1 1073741824.0 48 96
- 0.743467 0 1 encap 230 ------- 0 0.2 4.0 -1 113
+ 0.745 0 1 encap 230 ------- 0 0.2 4.0 -1 185
r 0.745067 1 4 encap 230 ------- 0 0.2 4.0 -1 103
+ 0.745067 4 1 cbr 210 ------- 0 0.1 1073741824.0 51 102
- 0.745067 4 1 cbr 210 ------- 0 0.1 1073741824.0 51 102
r 0.7456 1 2 cbr 210 ------- 0 0.1 1073741824.0 46 92
r 0.747333 0 1 encap 230 ------- 0 0.2 4.0 -1 109
+ 0.747333 1 4 encap 230 ------- 0 0.2 4.0 -1 109
- 0.747333 1 4 encap 230 ------- 0 0.2 4.0 -1 109
r 0.7484 4 1 cbr 210 ------- 0 0.1 1073741824.0 49 98
+ 0.7484 1 2 cbr 210 ------- 0 0.1 1073741824.0 49 98
- 0.7484 1 2 cbr 210 ------- 0 0.1 1073741824.0 49 98
+ 0.74875 0 1 encap 230 ------- 0 0.2 4.0 -1 187
- 0.7496 0 1 encap 230 ------- 0 0.2 4.0 -1 115
r 0.7512 1 4 encap 230 ------- 0 0.2 4.0 -1 105
+ 0.7512 4 1 cbr 210 ------- 0 0.1 1073741824.0 52 104
- 0.7512 4 1 cbr 210 ------- 0 0.1 1073741824.0 52 104
r 0.751733 1 2 cbr 210 ------- 0 0.1 1073741824.0 47 94
+ 0.7525 0 1 encap 230 ------- 0 0.2 4.0 -1 189
r 0.753467 0 1 encap 230 ------- 0 0.2 4.0 -1 111
+ 0.753467 1 4 encap 230 ------- 0 0.2 4.0 -1 111
- 0.753467 1 4 encap 230 ------- 0 0.2 4.0 -1 111
r 0.754533 4 1 cbr 210 ------- 0 0.1 1073741824.0 50 100
+ 0.754533 1 2 cbr 210 ------- 0 0.1 1073741824.0 50 100
- 0.754533 1 2 cbr 210 ------- 0 0.1 1073741824.0 50 100
- 0.755733 0 1 encap 230 ------- 0 0.2 4.0 -1 117
+ 0.75625 0 1 encap 230 ------- 0 0.2 4.0 -1 191
r 0.757333 1 4 encap 230 ------- 0 0.2 4.0 -1 107
+ 0.757333 4 1 cbr 210 ------- 0 0.1 1073741824.0 53 106
- 0.757333 4 1 cbr 210 ------- 0 0.1 1073741824.0 53 106
r 0.757867 1 2 cbr 210 ------- 0 0.1 1073741824.0 48 96
r 0.7596 0 1 encap 230 ------- 0 0.2 4.0 -1 113
+ 0.7596 1 4 encap 230 ------- 0 0.2 4.0 -1 113
- 0.7596 1 4 encap 230 ------- 0 0.2 4.0 -1 113
+ 0.76 0 1 encap 230 ------- 0 0.2 4.0 -1 193
r 0.760667 4 1 cbr 210 ------- 0 0.1 1073741824.0 51 102
+ 0.760667 1 2 cbr 210 ------- 0 0.1 1073741824.0 51 102
- 0.760667 1 2 cbr 210 ------- 0 0.1 1073741824.0 51 102
- 0.761867 0 1 encap 230 ------- 0 0.2 4.0 -1 119
r 0.763467 1 4 encap 230 ------- 0 0.2 4.0 -1 109
+ 0.763467 4 1 cbr 210 ------- 0 0.1 1073741824.0 54 108
- 0.763467 4 1 cbr 210 ------- 0 0.1 1073741824.0 54 108
+ 0.76375 0 1 encap 230 ------- 0 0.2 4.0 -1 195
r 0.764 1 2 cbr 210 ------- 0 0.1 1073741824.0 49 98
r 0.765733 0 1 encap 230 ------- 0 0.2 4.0 -1 115
+ 0.765733 1 4 encap 230 ------- 0 0.2 4.0 -1 115
- 0.765733 1 4 encap 230 ------- 0 0.2 4.0 -1 115
r 0.7668 4 1 cbr 210 ------- 0 0.1 1073741824.0 52 104
+ 0.7668 1 2 cbr 210 ------- 0 0.1 1073741824.0 52 104
- 0.7668 1 2 cbr 210 ------- 0 0.1 1073741824.0 52 104
+ 0.7675 0 1 encap 230 ------- 0 0.2 4.0 -1 197
- 0.768 0 1 encap 230 ------- 0 0.2 4.0 -1 121
r 0.7696 1 4 encap 230 ------- 0 0.2 4.0 -1 111
+ 0.7696 4 1 cbr 210 ------- 0 0.1 1073741824.0 55 110
- 0.7696 4 1 cbr 210 ------- 0 0.1 1073741824.0 55 110
r 0.770133 1 2 cbr 210 ------- 0 0.1 1073741824.0 50 100
+ 0.77125 0 1 encap 230 ------- 0 0.2 4.0 -1 199
r 0.771867 0 1 encap 230 ------- 0 0.2 4.0 -1 117
+ 0.771867 1 4 encap 230 ------- 0 0.2 4.0 -1 117
- 0.771867 1 4 encap 230 ------- 0 0.2 4.0 -1 117
r 0.772933 4 1 cbr 210 ------- 0 0.1 1073741824.0 53 106
+ 0.772933 1 2 cbr 210 ------- 0 0.1 1073741824.0 53 106
- 0.772933 1 2 cbr 210 ------- 0 0.1 1073741824.0 53 106
- 0.774133 0 1 encap 230 ------- 0 0.2 4.0 -1 123
+ 0.775 0 1 encap 230 ------- 0 0.2 4.0 -1 201
r 0.775733 1 4 encap 230 ------- 0 0.2 4.0 -1 113
+ 0.775733 4 1 cbr 210 ------- 0 0.1 1073741824.0 56 112
- 0.775733 4 1 cbr 210 ------- 0 0.1 1073741824.0 56 112
r 0.776267 1 2 cbr 210 ------- 0 0.1 1073741824.0 51 102
r 0.778 0 1 encap 230 ------- 0 0.2 4.0 -1 119
+ 0.778 1 4 encap 230 ------- 0 0.2 4.0 -1 119
- 0.778 1 4 encap 230 ------- 0 0.2 4.0 -1 119
+ 0.77875 0 1 encap 230 ------- 0 0.2 4.0 -1 203
r 0.779067 4 1 cbr 210 ------- 0 0.1 1073741824.0 54 108
+ 0.779067 1 2 cbr 210 ------- 0 0.1 1073741824.0 54 108
- 0.779067 1 2 cbr 210 ------- 0 0.1 1073741824.0 54 108
- 0.780267 0 1 encap 230 ------- 0 0.2 4.0 -1 125
r 0.781867 1 4 encap 230 ------- 0 0.2 4.0 -1 115
+ 0.781867 4 1 cbr 210 ------- 0 0.1 1073741824.0 57 114
- 0.781867 4 1 cbr 210 ------- 0 0.1 1073741824.0 57 114
r 0.7824 1 2 cbr 210 ------- 0 0.1 1073741824.0 52 104
+ 0.7825 0 1 encap 230 ------- 0 0.2 4.0 -1 205
r 0.784133 0 1 encap 230 ------- 0 0.2 4.0 -1 121
+ 0.784133 1 4 encap 230 ------- 0 0.2 4.0 -1 121
- 0.784133 1 4 encap 230 ------- 0 0.2 4.0 -1 121
r 0.7852 4 1 cbr 210 ------- 0 0.1 1073741824.0 55 110
+ 0.7852 1 2 cbr 210 ------- 0 0.1 1073741824.0 55 110
- 0.7852 1 2 cbr 210 ------- 0 0.1 1073741824.0 55 110
+ 0.78625 0 1 encap 230 ------- 0 0.2 4.0 -1 207
- 0.7864 0 1 encap 230 ------- 0 0.2 4.0 -1 127
r 0.788 1 4 encap 230 ------- 0 0.2 4.0 -1 117
+ 0.788 4 1 cbr 210 ------- 0 0.1 1073741824.0 58 116
- 0.788 4 1 cbr 210 ------- 0 0.1 1073741824.0 58 116
r 0.788533 1 2 cbr 210 ------- 0 0.1 1073741824.0 53 106
+ 0.79 0 1 encap 230 ------- 0 0.2 4.0 -1 209
r 0.790267 0 1 encap 230 ------- 0 0.2 4.0 -1 123
+ 0.790267 1 4 encap 230 ------- 0 0.2 4.0 -1 123
- 0.790267 1 4 encap 230 ------- 0 0.2 4.0 -1 123
r 0.791333 4 1 cbr 210 ------- 0 0.1 1073741824.0 56 112
+ 0.791333 1 2 cbr 210 ------- 0 0.1 1073741824.0 56 112
- 0.791333 1 2 cbr 210 ------- 0 0.1 1073741824.0 56 112
- 0.792533 0 1 encap 230 ------- 0 0.2 4.0 -1 129
+ 0.79375 0 1 encap 230 ------- 0 0.2 4.0 -1 211
r 0.794133 1 4 encap 230 ------- 0 0.2 4.0 -1 119
+ 0.794133 4 1 cbr 210 ------- 0 0.1 1073741824.0 59 118
- 0.794133 4 1 cbr 210 ------- 0 0.1 1073741824.0 59 118