V -t * -v 1.0a5 -a 0
A -t * -n 1 -p 0 -o 0x7fffffff -c 30 -a 1
A -t * -h 1 -m 1073741823 -s 0
c -t * -i 31 -n green
c -t * -i 1 -n red
c -t * -i 30 -n purple
n -t * -a 4 -s 4 -S UP -v circle -c black -i black
n -t * -a 0 -s 0 -S UP -v circle -c black -i black
n -t * -a 5 -s 5 -S UP -v circle -c black -i black
n -t * -a 1 -s 1 -S UP -v circle -c black -i black
n -t * -a 2 -s 2 -S UP -v circle -c black -i black
n -t * -a 3 -s 3 -S UP -v circle -c black -i black
l -t * -s 0 -d 1 -S UP -r 300000 -D 0.01 -c black
l -t * -s 1 -d 2 -S UP -r 300000 -D 0.01 -c black
l -t * -s 1 -d 3 -S UP -r 500000 -D 0.01 -c black
l -t * -s 1 -d 4 -S UP -r 300000 -D 0.01 -c black
l -t * -s 2 -d 3 -S UP -r 300000 -D 0.01 -c black
l -t * -s 3 -d 4 -S UP -r 500000 -D 0.01 -c black
l -t * -s 3 -d 5 -S UP -r 500000 -D 0.01 -c black
l -t * -s 4 -d 5 -S UP -r 500000 -D 0.01 -c black
+ -t 0.4 -s 0 -d 1 -p encap -e 230 -c 0 -i 1 -a 0 -x {0.2 4.0 -1 ------- null}
- -t 0.4 -s 0 -d 1 -p encap -e 230 -c 0 -i 1 -a 0 -x {0.2 4.0 -1 ------- null}
h -t 0.4 -s 0 -d 1 -p encap -e 230 -c 0 -i 1 -a 0 -x {0.2 4.0 -1 ------- null}
+ -t 0.40375 -s 0 -d 1 -p encap -e 230 -c 0 -i 3 -a 0 -x {0.2 4.0 -1 ------- null}
- -t 0.406133333333333 -s 0 -d 1 -p encap -e 230 -c 0 -i 3 -a 0 -x {0.2 4.0 -1 ------- null}
h -t 0.406133333333333 -s 0 -d 1 -p encap -e 230 -c 0 -i 3 -a 0 -x {0.2 4.0 -1 ------- null}
+ -t 0.4075 -s 0 -d 1 -p encap -e 230 -c 0 -i 5 -a 0 -x {0.2 4.0 -1 ------- null}
+ -t 0.41125 -s 0 -d 1 -p encap -e 230 -c 0 -i 7 -a 0 -x {0.2 4.0 -1 ------- null}
- -t 0.412266666666667 -s 0 -d 1 -p encap -e 230 -c 0 -i 5 -a 0 -x {0.2 4.0 -1 ------- null}
h -t 0.412266666666667 -s 0 -d 1 -p encap -e 230 -c 0 -i 5 -a 0 -x {0.2 4.0 -1 ------- null}
+ -t 0.415 -s 0 -d 1 -p encap -e 230 -c 0 -i 9 -a 0 -x {0.2 4.0 -1 ------- null}
r -t 0.416133333333333 -s 0 -d 1 -p encap -e 230 -c 0 -i 1 -a 0 -x {0.2 4.0 -1 ------- null}
+ -t 0.416133333333333 -s 1 -d 4 -p encap -e 230 -c 0 -i 1 -a 0 -x {0.2 4.0 -1 ------- null}
- -t 0.416133333333333 -s 1 -d 4 -p encap -e 230 -c 0 -i 1 -a 0 -x {0.2 4.0 -1 ------- null}
h -t 0.416133333333333 -s 1 -d 4 -p encap -e 230 -c 0 -i 1 -a 0 -x {0.2 4.0 -1 ------- null}
- -t 0.4184 -s 0 -d 1 -p encap -e 230 -c 0 -i 7 -a 0 -x {0.2 4.0 -1 ------- null}
h -t 0.4184 -s 0 -d 1 -p encap -e 230 -c 0 -i 7 -a 0 -x {0.2 4.0 -1 ------- null}
+ -t 0.41875 -s 0 -d 1 -p encap -e 230 -c 0 -i 11 -a 0 -x {0.2 4.0 -1 ------- null}
r -t 0.422266666666667 -s 0 -d 1 -p encap -e 230 -c 0 -i 3 -a 0 -x {0.2 4.0 -1 ------- null}
+ -t 0.422266666666667 -s 1 -d 4 -p encap -e 230 -c 0 -i 3 -a 0 -x {0.2 4.0 -1 ------- null}
- -t 0.422266666666667 -s 1 -d 4 -p encap -e 230 -c 0 -i 3 -a 0 -x {0.2 4.0 -1 ------- null}
h -t 0.422266666666667 -s 1 -d 4 -p encap -e 230 -c 0 -i 3 -a 0 -x {0.2 4.0 -1 ------- null}
+ -t 0.4225 -s 0 -d 1 -p encap -e 230 -c 0 -i 13 -a 0 -x {0.2 4.0 -1 ------- null}
- -t 0.424533333333333 -s 0 -d 1 -p encap -e 230 -c 0 -i 9 -a 0 -x {0.2 4.0 -1 ------- null}
h -t 0.424533333333333 -s 0 -d 1 -p encap -e 230 -c 0 -i 9 -a 0 -x {0.2 4.0 -1 ------- null}
+ -t 0.42625 -s 0 -d 1 -p encap -e 230 -c 0 -i 15 -a 0 -x {0.2 4.0 -1 ------- null}
r -t 0.4284 -s 0 -d 1 -p encap -e 230 -c 0 -i 5 -a 0 -x {0.2 4.0 -1 ------- null}
+ -t 0.4284 -s 1 -d 4 -p encap -e 230 -c 0 -i 5 -a 0 -x {0.2 4.0 -1 ------- null}
- -t 0.4284 -s 1 -d 4 -p encap -e 230 -c 0 -i 5 -a 0 -x {0.2 4.0 -1 ------- null}
h -t 0.4284 -s 1 -d 4 -p encap -e 230 -c 0 -i 5 -a 0 -x {0.2 4.0 -1 ------- null}
+ -t 0.43 -s 0 -d 1 -p encap -e 230 -c 0 -i 17 -a 0 -x {0.2 4.0 -1 ------- null}
- -t 0.430666666666667 -s 0 -d 1 -p encap -e 230 -c 0 -i 11 -a 0 -x {0.2 4.0 -1 ------- null}
h -t 0.430666666666667 -s 0 -d 1 -p encap -e 230 -c 0 -i 11 -a 0 -x {0.2 4.0 -1 ------- null}
r -t 0.432266666666667 -s 1 -d 4 -p encap -e 230 -c 0 -i 1 -a 0 -x {0.2 4.0 -1 ------- null}
+ -t 0.43375 -s 0 -d 1 -p encap -e 230 -c 0 -i 19 -a 0 -x {0.2 4.0 -1 ------- null}
r -t 0.434533333333333 -s 0 -d 1 -p encap -e 230 -c 0 -i 7 -a 0 -x {0.2 4.0 -1 ------- null}
+ -t 0.434533333333333 -s 1 -d 4 -p encap -e 230 -c 0 -i 7 -a 0 -x {0.2 4.0 -1 ------- null}
- -t 0.434533333333333 -s 1 -d 4 -p encap -e 230 -c 0 -i 7 -a 0 -x {0.2 4.0 -1 ------- null}
h -t 0.434533333333333 -s 1 -d 4 -p encap -e 230 -c 0 -i 7 -a 0 -x {0.2 4.0 -1 ------- null}
- -t 0.4368 -s 0 -d 1 -p encap -e 230 -c 0 -i 13 -a 0 -x {0.2 4.0 -1 ------- null}
h -t 0.4368 -s 0 -d 1 -p encap -e 230 -c 0 -i 13 -a 0 -x {0.2 4.0 -1 ------- null}
+ -t 0.4375 -s 0 -d 1 -p encap -e 230 -c 0 -i 21 -a 0 -x {0.2 4.0 -1 ------- null}
r -t 0.4384 -s 1 -d 4 -p encap -e 230 -c 0 -i 3 -a 0 -x {0.2 4.0 -1 ------- null}
r -t 0.440666666666667 -s 0 -d 1 -p encap -e 230 -c 0 -i 9 -a 0 -x {0.2 4.0 -1 ------- null}
+ -t 0.440666666666667 -s 1 -d 4 -p encap -e 230 -c 0 -i 9 -a 0 -x {0.2 4.0 -1 ------- null}
- -t 0.440666666666667 -s 1 -d 4 -p encap -e 230 -c 0 -i 9 -a 0 -x {0.2 4.0 -1 ------- null}
h -t 0.440666666666667 -s 1 -d 4 -p encap -e 230 -c 0 -i 9 -a 0 -x {0.2 4.0 -1 ------- null}
+ -t 0.44125 -s 0 -d 1 -p encap -e 230 -c 0 -i 23 -a 0 -x {0.2 4.0 -1 ------- null}
- -t 0.442933333333333 -s 0 -d 1 -p encap -e 230 -c 0 -i 15 -a 0 -x {0.2 4.0 -1 ------- null}
h -t 0.442933333333333 -s 0 -d 1 -p encap -e 230 -c 0 -i 15 -a 0 -x {0.2 4.0 -1 ------- null}
r -t 0.444533333333333 -s 1 -d 4 -p encap -e 230 -c 0 -i 5 -a 0 -x {0.2 4.0 -1 ------- null}
+ -t 0.445 -s 0 -d 1 -p encap -e 230 -c 0 -i 25 -a 0 -x {0.2 4.0 -1 ------- null}
r -t 0.4468 -s 0 -d 1 -p encap -e 230 -c 0 -i 11 -a 0 -x {0.2 4.0 -1 ------- null}
+ -t 0.4468 -s 1 -d 4 -p encap -e 230 -c 0 -i 11 -a 0 -x {0.2 4.0 -1 ------- null}
- -t 0.4468 -s 1 -d 4 -p encap -e 230 -c 0 -i 11 -a 0 -x {0.2 4.0 -1 ------- null}
h -t 0.4468 -s 1 -d 4 -p encap -e 230 -c 0 -i 11 -a 0 -x {0.2 4.0 -1 ------- null}
+ -t 0.44875 -s 0 -d 1 -p encap -e 230 -c 0 -i 27 -a 0 -x {0.2 4.0 -1 ------- null}
- -t 0.449066666666667 -s 0 -d 1 -p encap -e 230 -c 0 -i 17 -a 0 -x {0.2 4.0 -1 ------- null}
h -t 0.449066666666667 -s 0 -d 1 -p encap -e 230 -c 0 -i 17 -a 0 -x {0.2 4.0 -1 ------- null}
r -t 0.450666666666667 -s 1 -d 4 -p encap -e 230 -c 0 -i 7 -a 0 -x {0.2 4.0 -1 ------- null}
+ -t 0.4525 -s 0 -d 1 -p encap -e 230 -c 0 -i 29 -a 0 -x {0.2 4.0 -1 ------- null}
r -t 0.452933333333333 -s 0 -d 1 -p encap -e 230 -c 0 -i 13 -a 0 -x {0.2 4.0 -1 ------- null}
+ -t 0.452933333333333 -s 1 -d 4 -p encap -e 230 -c 0 -i 13 -a 0 -x {0.2 4.0 -1 ------- null}
- -t 0.452933333333333 -s 1 -d 4 -p encap -e 230 -c 0 -i 13 -a 0 -x {0.2 4.0 -1 ------- null}
h -t 0.452933333333333 -s 1 -d 4 -p encap -e 230 -c 0 -i 13 -a 0 -x {0.2 4.0 -1 ------- null}
- -t 0.4552 -s 0 -d 1 -p encap -e 230 -c 0 -i 19 -a 0 -x {0.2 4.0 -1 ------- null}
h -t 0.4552 -s 0 -d 1 -p encap -e 230 -c 0 -i 19 -a 0 -x {0.2 4.0 -1 ------- null}
+ -t 0.45625 -s 0 -d 1 -p encap -e 230 -c 0 -i 31 -a 0 -x {0.2 4.0 -1 ------- null}
r -t 0.4568 -s 1 -d 4 -p encap -e 230 -c 0 -i 9 -a 0 -x {0.2 4.0 -1 ------- null}
r -t 0.459066666666667 -s 0 -d 1 -p encap -e 230 -c 0 -i 15 -a 0 -x {0.2 4.0 -1 ------- null}
+ -t 0.459066666666667 -s 1 -d 4 -p encap -e 230 -c 0 -i 15 -a 0 -x {0.2 4.0 -1 ------- null}
- -t 0.459066666666667 -s 1 -d 4 -p encap -e 230 -c 0 -i 15 -a 0 -x {0.2 4.0 -1 ------- null}
h -t 0.459066666666667 -s 1 -d 4 -p encap -e 230 -c 0 -i 15 -a 0 -x {0.2 4.0 -1 ------- null}
+ -t 0.46 -s 0 -d 1 -p encap -e 230 -c 0 -i 33 -a 0 -x {0.2 4.0 -1 ------- null}
- -t 0.461333333333333 -s 0 -d 1 -p encap -e 230 -c 0 -i 21 -a 0 -x {0.2 4.0 -1 ------- null}
h -t 0.461333333333333 -s 0 -d 1 -p encap -e 230 -c 0 -i 21 -a 0 -x {0.2 4.0 -1 ------- null}
r -t 0.462933333333333 -s 1 -d 4 -p encap -e 230 -c 0 -i 11 -a 0 -x {0.2 4.0 -1 ------- null}
+ -t 0.46375 -s 0 -d 1 -p encap -e 230 -c 0 -i 35 -a 0 -x {0.2 4.0 -1 ------- null}
r -t 0.4652 -s 0 -d 1 -p encap -e 230 -c 0 -i 17 -a 0 -x {0.2 4.0 -1 ------- null}
+ -t 0.4652 -s 1 -d 4 -p encap -e 230 -c 0 -i 17 -a 0 -x {0.2 4.0 -1 ------- null}
- -t 0.4652 -s 1 -d 4 -p encap -e 230 -c 0 -i 17 -a 0 -x {0.2 4.0 -1 ------- null}
h -t 0.4652 -s 1 -d 4 -p encap -e 230 -c 0 -i 17 -a 0 -x {0.2 4.0 -1 ------- null}
- -t 0.467466666666667 -s 0 -d 1 -p encap -e 230 -c 0 -i 23 -a 0 -x {0.2 4.0 -1 ------- null}
h -t 0.467466666666667 -s 0 -d 1 -p encap -e 230 -c 0 -i 23 -a 0 -x {0.2 4.0 -1 ------- null}
+ -t 0.4675 -s 0 -d 1 -p encap -e 230 -c 0 -i 37 -a 0 -x {0.2 4.0 -1 ------- null}
r -t 0.469066666666667 -s 1 -d 4 -p encap -e 230 -c 0 -i 13 -a 0 -x {0.2 4.0 -1 ------- null}
+ -t 0.47125 -s 0 -d 1 -p encap -e 230 -c 0 -i 39 -a 0 -x {0.2 4.0 -1 ------- null}
r -t 0.471333333333333 -s 0 -d 1 -p encap -e 230 -c 0 -i 19 -a 0 -x {0.2 4.0 -1 ------- null}
+ -t 0.471333333333333 -s 1 -d 4 -p encap -e 230 -c 0 -i 19 -a 0 -x {0.2 4.0 -1 ------- null}
- -t 0.471333333333333 -s 1 -d 4 -p encap -e 230 -c 0 -i 19 -a 0 -x {0.2 4.0 -1 ------- null}
h -t 0.471333333333333 -s 1 -d 4 -p encap -e 230 -c 0 -i 19 -a 0 -x {0.2 4.0 -1 ------- null}
- -t 0.4736 -s 0 -d 1 -p encap -e 230 -c 0 -i 25 -a 0 -x {0.2 4.0 -1 ------- null}
h -t 0.4736 -s 0 -d 1 -p encap -e 230 -c 0 -i 25 -a 0 -x {0.2 4.0 -1 ------- null}
+ -t 0.475 -s 0 -d 1 -p encap -e 230 -c 0 -i 41 -a 0 -x {0.2 4.0 -1 ------- null}
r -t 0.4752 -s 1 -d 4 -p encap -e 230 -c 0 -i 15 -a 0 -x {0.2 4.0 -1 ------- null}
r -t 0.477466666666667 -s 0 -d 1 -p encap -e 230 -c 0 -i 21 -a 0 -x {0.2 4.0 -1 ------- null}
+ -t 0.477466666666667 -s 1 -d 4 -p encap -e 230 -c 0 -i 21 -a 0 -x {0.2 4.0 -1 ------- null}
- -t 0.477466666666667 -s 1 -d 4 -p encap -e 230 -c 0 -i 21 -a 0 -x {0.2 4.0 -1 ------- null}
h -t 0.477466666666667 -s 1 -d 4 -p encap -e 230 -c 0 -i 21 -a 0 -x {0.2 4.0 -1 ------- null}
+ -t 0.47875 -s 0 -d 1 -p encap -e 230 -c 0 -i 43 -a 0 -x {0.2 4.0 -1 ------- null}
- -t 0.479733333333333 -s 0 -d 1 -p encap -e 230 -c 0 -i 27 -a 0 -x {0.2 4.0 -1 ------- null}
h -t 0.479733333333333 -s 0 -d 1 -p encap -e 230 -c 0 -i 27 -a 0 -x {0.2 4.0 -1 ------- null}
r -t 0.481333333333333 -s 1 -d 4 -p encap -e 230 -c 0 -i 17 -a 0 -x {0.2 4.0 -1 ------- null}
+ -t 0.482499999999999 -s 0 -d 1 -p encap -e 230 -c 0 -i 45 -a 0 -x {0.2 4.0 -1 ------- null}
r -t 0.4836 -s 0 -d 1 -p encap -e 230 -c 0 -i 23 -a 0 -x {0.2 4.0 -1 ------- null}
+ -t 0.4836 -s 1 -d 4 -p encap -e 230 -c 0 -i 23 -a 0 -x {0.2 4.0 -1 ------- null}
- -t 0.4836 -s 1 -d 4 -p encap -e 230 -c 0 -i 23 -a 0 -x {0.2 4.0 -1 ------- null}
h -t 0.4836 -s 1 -d 4 -p encap -e 230 -c 0 -i 23 -a 0 -x {0.2 4.0 -1 ------- null}
- -t 0.485866666666667 -s 0 -d 1 -p encap -e 230 -c 0 -i 29 -a 0 -x {0.2 4.0 -1 ------- null}
h -t 0.485866666666667 -s 0 -d 1 -p encap -e 230 -c 0 -i 29 -a 0 -x {0.2 4.0 -1 ------- null}
+ -t 0.486249999999999 -s 0 -d 1 -p encap -e 230 -c 0 -i 47 -a 0 -x {0.2 4.0 -1 ------- null}
r -t 0.487466666666667 -s 1 -d 4 -p encap -e 230 -c 0 -i 19 -a 0 -x {0.2 4.0 -1 ------- null}
r -t 0.489733333333333 -s 0 -d 1 -p encap -e 230 -c 0 -i 25 -a 0 -x {0.2 4.0 -1 ------- null}
+ -t 0.489733333333333 -s 1 -d 4 -p encap -e 230 -c 0 -i 25 -a 0 -x {0.2 4.0 -1 ------- null}
- -t 0.489733333333333 -s 1 -d 4 -p encap -e 230 -c 0 -i 25 -a 0 -x {0.2 4.0 -1 ------- null}
h -t 0.489733333333333 -s 1 -d 4 -p encap -e 230 -c 0 -i 25 -a 0 -x {0.2 4.0 -1 ------- null}
+ -t 0.489999999999999 -s 0 -d 1 -p encap -e 230 -c 0 -i 49 -a 0 -x {0.2 4.0 -1 ------- null}
- -t 0.492 -s 0 -d 1 -p encap -e 230 -c 0 -i 31 -a 0 -x {0.2 4.0 -1 ------- null}
h -t 0.492 -s 0 -d 1 -p encap -e 230 -c 0 -i 31 -a 0 -x {0.2 4.0 -1 ------- null}
r -t 0.4936 -s 1 -d 4 -p encap -e 230 -c 0 -i 21 -a 0 -x {0.2 4.0 -1 ------- null}
+ -t 0.493749999999999 -s 0 -d 1 -p encap -e 230 -c 0 -i 51 -a 0 -x {0.2 4.0 -1 ------- null}
r -t 0.495866666666667 -s 0 -d 1 -p encap -e 230 -c 0 -i 27 -a 0 -x {0.2 4.0 -1 ------- null}
+ -t 0.495866666666667 -s 1 -d 4 -p encap -e 230 -c 0 -i 27 -a 0 -x {0.2 4.0 -1 ------- null}
- -t 0.495866666666667 -s 1 -d 4 -p encap -e 230 -c 0 -i 27 -a 0 -x {0.2 4.0 -1 ------- null}
h -t 0.495866666666667 -s 1 -d 4 -p encap -e 230 -c 0 -i 27 -a 0 -x {0.2 4.0 -1 ------- null}
+ -t 0.497499999999999 -s 0 -d 1 -p encap -e 230 -c 0 -i 53 -a 0 -x {0.2 4.0 -1 ------- null}
- -t 0.498133333333333 -s 0 -d 1 -p encap -e 230 -c 0 -i 33 -a 0 -x {0.2 4.0 -1 ------- null}
h -t 0.498133333333333 -s 0 -d 1 -p encap -e 230 -c 0 -i 33 -a 0 -x {0.2 4.0 -1 ------- null}
r -t 0.499733333333333 -s 1 -d 4 -p encap -e 230 -c 0 -i 23 -a 0 -x {0.2 4.0 -1 ------- null}
+ -t 0.501249999999999 -s 0 -d 1 -p encap -e 230 -c 0 -i 55 -a 0 -x {0.2 4.0 -1 ------- null}
r -t 0.502 -s 0 -d 1 -p encap -e 230 -c 0 -i 29 -a 0 -x {0.2 4.0 -1 ------- null}
+ -t 0.502 -s 1 -d 4 -p encap -e 230 -c 0 -i 29 -a 0 -x {0.2 4.0 -1 ------- null}
- -t 0.502 -s 1 -d 4 -p encap -e 230 -c 0 -i 29 -a 0 -x {0.2 4.0 -1 ------- null}
h -t 0.502 -s 1 -d 4 -p encap -e 230 -c 0 -i 29 -a 0 -x {0.2 4.0 -1 ------- null}
- -t 0.504266666666667 -s 0 -d 1 -p encap -e 230 -c 0 -i 35 -a 0 -x {0.2 4.0 -1 ------- null}
h -t 0.504266666666667 -s 0 -d 1 -p encap -e 230 -c 0 -i 35 -a 0 -x {0.2 4.0 -1 ------- null}
+ -t 0.504999999999999 -s 0 -d 1 -p encap -e 230 -c 0 -i 57 -a 0 -x {0.2 4.0 -1 ------- null}
r -t 0.505866666666667 -s 1 -d 4 -p encap -e 230 -c 0 -i 25 -a 0 -x {0.2 4.0 -1 ------- null}
r -t 0.508133333333333 -s 0 -d 1 -p encap -e 230 -c 0 -i 31 -a 0 -x {0.2 4.0 -1 ------- null}
+ -t 0.508133333333333 -s 1 -d 4 -p encap -e 230 -c 0 -i 31 -a 0 -x {0.2 4.0 -1 ------- null}
- -t 0.508133333333333 -s 1 -d 4 -p encap -e 230 -c 0 -i 31 -a 0 -x {0.2 4.0 -1 ------- null}
h -t 0.508133333333333 -s 1 -d 4 -p encap -e 230 -c 0 -i 31 -a 0 -x {0.2 4.0 -1 ------- null}
+ -t 0.508749999999999 -s 0 -d 1 -p encap -e 230 -c 0 -i 59 -a 0 -x {0.2 4.0 -1 ------- null}
- -t 0.5104 -s 0 -d 1 -p encap -e 230 -c 0 -i 37 -a 0 -x {0.2 4.0 -1 ------- null}
h -t 0.5104 -s 0 -d 1 -p encap -e 230 -c 0 -i 37 -a 0 -x {0.2 4.0 -1 ------- null}
r -t 0.512 -s 1 -d 4 -p encap -e 230 -c 0 -i 27 -a 0 -x {0.2 4.0 -1 ------- null}
+ -t 0.5125 -s 0 -d 1 -p encap -e 230 -c 0 -i 61 -a 0 -x {0.2 4.0 -1 ------- null}
r -t 0.514266666666667 -s 0 -d 1 -p encap -e 230 -c 0 -i 33 -a 0 -x {0.2 4.0 -1 ------- null}
+ -t 0.514266666666667 -s 1 -d 4 -p encap -e 230 -c 0 -i 33 -a 0 -x {0.2 4.0 -1 ------- null}
- -t 0.514266666666667 -s 1 -d 4 -p encap -e 230 -c 0 -i 33 -a 0 -x {0.2 4.0 -1 ------- null}
h -t 0.514266666666667 -s 1 -d 4 -p encap -e 230 -c 0 -i 33 -a 0 -x {0.2 4.0 -1 ------- null}
+ -t 0.51625 -s 0 -d 1 -p encap -e 230 -c 0 -i 63 -a 0 -x {0.2 4.0 -1 ------- null}
- -t 0.516533333333333 -s 0 -d 1 -p encap -e 230 -c 0 -i 39 -a 0 -x {0.2 4.0 -1 ------- null}
h -t 0.516533333333333 -s 0 -d 1 -p encap -e 230 -c 0 -i 39 -a 0 -x {0.2 4.0 -1 ------- null}
r -t 0.518133333333333 -s 1 -d 4 -p encap -e 230 -c 0 -i 29 -a 0 -x {0.2 4.0 -1 ------- null}
+ -t 0.52 -s 0 -d 1 -p encap -e 230 -c 0 -i 65 -a 0 -x {0.2 4.0 -1 ------- null}
r -t 0.5204 -s 0 -d 1 -p encap -e 230 -c 0 -i 35 -a 0 -x {0.2 4.0 -1 ------- null}
+ -t 0.5204 -s 1 -d 4 -p encap -e 230 -c 0 -i 35 -a 0 -x {0.2 4.0 -1 ------- null}
- -t 0.5204 -s 1 -d 4 -p encap -e 230 -c 0 -i 35 -a 0 -x {0.2 4.0 -1 ------- null}
h -t 0.5204 -s 1 -d 4 -p encap -e 230 -c 0 -i 35 -a 0 -x {0.2 4.0 -1 ------- null}
- -t 0.522666666666667 -s 0 -d 1 -p encap -e 230 -c 0 -i 41 -a 0 -x {0.2 4.0 -1 ------- null}
h -t 0.522666666666667 -s 0 -d 1 -p encap -e 230 -c 0 -i 41 -a 0 -x {0.2 4.0 -1 ------- null}
+ -t 0.52375 -s 0 -d 1 -p encap -e 230 -c 0 -i 67 -a 0 -x {0.2 4.0 -1 ------- null}
r -t 0.524266666666667 -s 1 -d 4 -p encap -e 230 -c 0 -i 31 -a 0 -x {0.2 4.0 -1 ------- null}
r -t 0.526533333333333 -s 0 -d 1 -p encap -e 230 -c 0 -i 37 -a 0 -x {0.2 4.0 -1 ------- null}
+ -t 0.526533333333333 -s 1 -d 4 -p encap -e 230 -c 0 -i 37 -a 0 -x {0.2 4.0 -1 ------- null}
- -t 0.526533333333333 -s 1 -d 4 -p encap -e 230 -c 0 -i 37 -a 0 -x {0.2 4.0 -1 ------- null}
h -t 0.526533333333333 -s 1 -d 4 -p encap -e 230 -c 0 -i 37 -a 0 -x {0.2 4.0 -1 ------- null}
+ -t 0.5275 -s 0 -d 1 -p encap -e 230 -c 0 -i 69 -a 0 -x {0.2 4.0 -1 ------- null}
- -t 0.5288 -s 0 -d 1 -p encap -e 230 -c 0 -i 43 -a 0 -x {0.2 4.0 -1 ------- null}
h -t 0.5288 -s 0 -d 1 -p encap -e 230 -c 0 -i 43 -a 0 -x {0.2 4.0 -1 ------- null}
r -t 0.5304 -s 1 -d 4 -p encap -e 230 -c 0 -i 33 -a 0 -x {0.2 4.0 -1 ------- null}
+ -t 0.53125 -s 0 -d 1 -p encap -e 230 -c 0 -i 71 -a 0 -x {0.2 4.0 -1 ------- null}
r -t 0.532666666666667 -s 0 -d 1 -p encap -e 230 -c 0 -i 39 -a 0 -x {0.2 4.0 -1 ------- null}
+ -t 0.532666666666667 -s 1 -d 4 -p encap -e 230 -c 0 -i 39 -a 0 -x {0.2 4.0 -1 ------- null}
- -t 0.532666666666667 -s 1 -d 4 -p encap -e 230 -c 0 -i 39 -a 0 -x {0.2 4.0 -1 ------- null}
h -t 0.532666666666667 -s 1 -d 4 -p encap -e 230 -c 0 -i 39 -a 0 -x {0.2 4.0 -1 ------- null}
- -t 0.534933333333333 -s 0 -d 1 -p encap -e 230 -c 0 -i 45 -a 0 -x {0.2 4.0 -1 ------- null}
h -t 0.534933333333333 -s 0 -d 1 -p encap -e 230 -c 0 -i 45 -a 0 -x {0.2 4.0 -1 ------- null}
+ -t 0.535 -s 0 -d 1 -p encap -e 230 -c 0 -i 73 -a 0 -x {0.2 4.0 -1 ------- null}
r -t 0.536533333333333 -s 1 -d 4 -p encap -e 230 -c 0 -i 35 -a 0 -x {0.2 4.0 -1 ------- null}
+ -t 0.53875 -s 0 -d 1 -p encap -e 230 -c 0 -i 75 -a 0 -x {0.2 4.0 -1 ------- null}
r -t 0.5388 -s 0 -d 1 -p encap -e 230 -c 0 -i 41 -a 0 -x {0.2 4.0 -1 ------- null}
+ -t 0.5388 -s 1 -d 4 -p encap -e 230 -c 0 -i 41 -a 0 -x {0.2 4.0 -1 ------- null}
- -t 0.5388 -s 1 -d 4 -p encap -e 230 -c 0 -i 41 -a 0 -x {0.2 4.0 -1 ------- null}
h -t 0.5388 -s 1 -d 4 -p encap -e 230 -c 0 -i 41 -a 0 -x {0.2 4.0 -1 ------- null}
- -t 0.541066666666666 -s 0 -d 1 -p encap -e 230 -c 0 -i 47 -a 0 -x {0.2 4.0 -1 ------- null}
h -t 0.541066666666666 -s 0 -d 1 -p encap -e 230 -c 0 -i 47 -a 0 -x {0.2 4.0 -1 ------- null}
+ -t 0.5425 -s 0 -d 1 -p encap -e 230 -c 0 -i 77 -a 0 -x {0.2 4.0 -1 ------- null}
r -t 0.542666666666667 -s 1 -d 4 -p encap -e 230 -c 0 -i 37 -a 0 -x {0.2 4.0 -1 ------- null}
r -t 0.544933333333333 -s 0 -d 1 -p encap -e 230 -c 0 -i 43 -a 0 -x {0.2 4.0 -1 ------- null}
+ -t 0.544933333333333 -s 1 -d 4 -p encap -e 230 -c 0 -i 43 -a 0 -x {0.2 4.0 -1 ------- null}
- -t 0.544933333333333 -s 1 -d 4 -p encap -e 230 -c 0 -i 43 -a 0 -x {0.2 4.0 -1 ------- null}
h -t 0.544933333333333 -s 1 -d 4 -p encap -e 230 -c 0 -i 43 -a 0 -x {0.2 4.0 -1 ------- null}
+ -t 0.54625 -s 0 -d 1 -p encap -e 230 -c 0 -i 79 -a 0 -x {0.2 4.0 -1 ------- null}
- -t 0.5472 -s 0 -d 1 -p encap -e 230 -c 0 -i 49 -a 0 -x {0.2 4.0 -1 ------- null}
h -t 0.5472 -s 0 -d 1 -p encap -e 230 -c 0 -i 49 -a 0 -x {0.2 4.0 -1 ------- null}
r -t 0.5488 -s 1 -d 4 -p encap -e 230 -c 0 -i 39 -a 0 -x {0.2 4.0 -1 ------- null}
+ -t 0.55 -s 0 -d 1 -p encap -e 230 -c 0 -i 81 -a 0 -x {0.2 4.0 -1 ------- null}
r -t 0.551066666666666 -s 0 -d 1 -p encap -e 230 -c 0 -i 45 -a 0 -x {0.2 4.0 -1 ------- null}
+ -t 0.551066666666666 -s 1 -d 4 -p encap -e 230 -c 0 -i 45 -a 0 -x {0.2 4.0 -1 ------- null}
- -t 0.551066666666666 -s 1 -d 4 -p encap -e 230 -c 0 -i 45 -a 0 -x {0.2 4.0 -1 ------- null}
h -t 0.551066666666666 -s 1 -d 4 -p encap -e 230 -c 0 -i 45 -a 0 -x {0.2 4.0 -1 ------- null}
- -t 0.553333333333333 -s 0 -d 1 -p encap -e 230 -c 0 -i 51 -a 0 -x {0.2 4.0 -1 ------- null}
h -t 0.553333333333333 -s 0 -d 1 -p encap -e 230 -c 0 -i 51 -a 0 -x {0.2 4.0 -1 ------- null}
+ -t 0.55375 -s 0 -d 1 -p encap -e 230 -c 0 -i 83 -a 0 -x {0.2 4.0 -1 ------- null}
r -t 0.554933333333333 -s 1 -d 4 -p encap -e 230 -c 0 -i 41 -a 0 -x {0.2 4.0 -1 ------- null}
r -t 0.5572 -s 0 -d 1 -p encap -e 230 -c 0 -i 47 -a 0 -x {0.2 4.0 -1 ------- null}
+ -t 0.5572 -s 1 -d 4 -p encap -e 230 -c 0 -i 47 -a 0 -x {0.2 4.0 -1 ------- null}
- -t 0.5572 -s 1 -d 4 -p encap -e 230 -c 0 -i 47 -a 0 -x {0.2 4.0 -1 ------- null}
h -t 0.5572 -s 1 -d 4 -p encap -e 230 -c 0 -i 47 -a 0 -x {0.2 4.0 -1 ------- null}
+ -t 0.5575 -s 0 -d 1 -p encap -e 230 -c 0 -i 85 -a 0 -x {0.2 4.0 -1 ------- null}
- -t 0.559466666666666 -s 0 -d 1 -p encap -e 230 -c 0 -i 53 -a 0 -x {0.2 4.0 -1 ------- null}
h -t 0.559466666666666 -s 0 -d 1 -p encap -e 230 -c 0 -i 53 -a 0 -x {0.2 4.0 -1 ------- null}
r -t 0.561066666666666 -s 1 -d 4 -p encap -e 230 -c 0 -i 43 -a 0 -x {0.2 4.0 -1 ------- null}
+ -t 0.56125 -s 0 -d 1 -p encap -e 230 -c 0 -i 87 -a 0 -x {0.2 4.0 -1 ------- null}
r -t 0.563333333333333 -s 0 -d 1 -p encap -e 230 -c 0 -i 49 -a 0 -x {0.2 4.0 -1 ------- null}
+ -t 0.563333333333333 -s 1 -d 4 -p encap -e 230 -c 0 -i 49 -a 0 -x {0.2 4.0 -1 ------- null}
- -t 0.563333333333333 -s 1 -d 4 -p encap -e 230 -c 0 -i 49 -a 0 -x {0.2 4.0 -1 ------- null}
h -t 0.563333333333333 -s 1 -d 4 -p encap -e 230 -c 0 -i 49 -a 0 -x {0.2 4.0 -1 ------- null}
+ -t 0.565 -s 0 -d 1 -p encap -e 230 -c 0 -i 89 -a 0 -x {0.2 4.0 -1 ------- null}
- -t 0.5656 -s 0 -d 1 -p encap -e 230 -c 0 -i 55 -a 0 -x {0.2 4.0 -1 ------- null}
h -t 0.5656 -s 0 -d 1 -p encap -e 230 -c 0 -i 55 -a 0 -x {0.2 4.0 -1 ------- null}
r -t 0.5672 -s 1 -d 4 -p encap -e 230 -c 0 -i 45 -a 0 -x {0.2 4.0 -1 ------- null}
+ -t 0.56875 -s 0 -d 1 -p encap -e 230 -c 0 -i 91 -a 0 -x {0.2 4.0 -1 ------- null}
r -t 0.569466666666666 -s 0 -d 1 -p encap -e 230 -c 0 -i 51 -a 0 -x {0.2 4.0 -1 ------- null}
+ -t 0.569466666666666 -s 1 -d 4 -p encap -e 230 -c 0 -i 51 -a 0 -x {0.2 4.0 -1 ------- null}
- -t 0.569466666666666 -s 1 -d 4 -p encap -e 230 -c 0 -i 51 -a 0 -x {0.2 4.0 -1 ------- null}
h -t 0.569466666666666 -s 1 -d 4 -p encap -e 230 -c 0 -i 51 -a 0 -x {0.2 4.0 -1 ------- null}
- -t 0.571733333333333 -s 0 -d 1 -p encap -e 230 -c 0 -i 57 -a 0 -x {0.2 4.0 -1 ------- null}
h -t 0.571733333333333 -s 0 -d 1 -p encap -e 230 -c 0 -i 57 -a 0 -x {0.2 4.0 -1 ------- null}
+ -t 0.5725 -s 0 -d 1 -p encap -e 230 -c 0 -i 93 -a 0 -x {0.2 4.0 -1 ------- null}
r -t 0.573333333333333 -s 1 -d 4 -p encap -e 230 -c 0 -i 47 -a 0 -x {0.2 4.0 -1 ------- null}
r -t 0.5756 -s 0 -d 1 -p encap -e 230 -c 0 -i 53 -a 0 -x {0.2 4.0 -1 ------- null}
+ -t 0.5756 -s 1 -d 4 -p encap -e 230 -c 0 -i 53 -a 0 -x {0.2 4.0 -1 ------- null}
- -t 0.5756 -s 1 -d 4 -p encap -e 230 -c 0 -i 53 -a 0 -x {0.2 4.0 -1 ------- null}
h -t 0.5756 -s 1 -d 4 -p encap -e 230 -c 0 -i 53 -a 0 -x {0.2 4.0 -1 ------- null}
+ -t 0.57625 -s 0 -d 1 -p encap -e 230 -c 0 -i 95 -a 0 -x {0.2 4.0 -1 ------- null}
- -t 0.577866666666666 -s 0 -d 1 -p encap -e 230 -c 0 -i 59 -a 0 -x {0.2 4.0 -1 ------- null}
h -t 0.577866666666666 -s 0 -d 1 -p encap -e 230 -c 0 -i 59 -a 0 -x {0.2 4.0 -1 ------- null}
r -t 0.579466666666666 -s 1 -d 4 -p encap -e 230 -c 0 -i 49 -a 0 -x {0.2 4.0 -1 ------- null}
+ -t 0.58 -s 0 -d 1 -p encap -e 230 -c 0 -i 97 -a 0 -x {0.2 4.0 -1 ------- null}
r -t 0.581733333333333 -s 0 -d 1 -p encap -e 230 -c 0 -i 55 -a 0 -x {0.2 4.0 -1 ------- null}
+ -t 0.581733333333333 -s 1 -d 4 -p encap -e 230 -c 0 -i 55 -a 0 -x {0.2 4.0 -1 ------- null}
- -t 0.581733333333333 -s 1 -d 4 -p encap -e 230 -c 0 -i 55 -a 0 -x {0.2 4.0 -1 ------- null}
h -t 0.581733333333333 -s 1 -d 4 -p encap -e 230 -c 0 -i 55 -a 0 -x {0.2 4.0 -1 ------- null}
+ -t 0.58375 -s 0 -d 1 -p encap -e 230 -c 0 -i 99 -a 0 -x {0.2 4.0 -1 ------- null}
- -t 0.584 -s 0 -d 1 -p encap -e 230 -c 0 -i 61 -a 0 -x {0.2 4.0 -1 ------- null}
h -t 0.584 -s 0 -d 1 -p encap -e 230 -c 0 -i 61 -a 0 -x {0.2 4.0 -1 ------- null}
r -t 0.5856 -s 1 -d 4 -p encap -e 230 -c 0 -i 51 -a 0 -x {0.2 4.0 -1 ------- null}
+ -t 0.5875 -s 0 -d 1 -p encap -e 230 -c 0 -i 101 -a 0 -x {0.2 4.0 -1 ------- null}
r -t 0.587866666666666 -s 0 -d 1 -p encap -e 230 -c 0 -i 57 -a 0 -x {0.2 4.0 -1 ------- null}
+ -t 0.587866666666666 -s 1 -d 4 -p encap -e 230 -c 0 -i 57 -a 0 -x {0.2 4.0 -1 ------- null}
- -t 0.587866666666666 -s 1 -d 4 -p encap -e 230 -c 0 -i 57 -a 0 -x {0.2 4.0 -1 ------- null}
h -t 0.587866666666666 -s 1 -d 4 -p encap -e 230 -c 0 -i 57 -a 0 -x {0.2 4.0 -1 ------- null}
- -t 0.590133333333333 -s 0 -d 1 -p encap -e 230 -c 0 -i 63 -a 0 -x {0.2 4.0 -1 ------- null}
h -t 0.590133333333333 -s 0 -d 1 -p encap -e 230 -c 0 -i 63 -a 0 -x {0.2 4.0 -1 ------- null}
+ -t 0.59125 -s 0 -d 1 -p encap -e 230 -c 0 -i 103 -a 0 -x {0.2 4.0 -1 ------- null}
r -t 0.591733333333333 -s 1 -d 4 -p encap -e 230 -c 0 -i 53 -a 0 -x {0.2 4.0 -1 ------- null}
r -t 0.594 -s 0 -d 1 -p encap -e 230 -c 0 -i 59 -a 0 -x {0.2 4.0 -1 ------- null}
+ -t 0.594 -s 1 -d 4 -p encap -e 230 -c 0 -i 59 -a 0 -x {0.2 4.0 -1 ------- null}
- -t 0.594 -s 1 -d 4 -p encap -e 230 -c 0 -i 59 -a 0 -x {0.2 4.0 -1 ------- null}
h -t 0.594 -s 1 -d 4 -p encap -e 230 -c 0 -i 59 -a 0 -x {0.2 4.0 -1 ------- null}
+ -t 0.595 -s 0 -d 1 -p encap -e 230 -c 0 -i 105 -a 0 -x {0.2 4.0 -1 ------- null}
- -t 0.596266666666666 -s 0 -d 1 -p encap -e 230 -c 0 -i 65 -a 0 -x {0.2 4.0 -1 ------- null}
h -t 0.596266666666666 -s 0 -d 1 -p encap -e 230 -c 0 -i 65 -a 0 -x {0.2 4.0 -1 ------- null}
r -t 0.597866666666666 -s 1 -d 4 -p encap -e 230 -c 0 -i 55 -a 0 -x {0.2 4.0 -1 ------- null}
+ -t 0.59875 -s 0 -d 1 -p encap -e 230 -c 0 -i 107 -a 0 -x {0.2 4.0 -1 ------- null}
v -t 0.6 -e sim_annotation 0.6 0.59999999999999998 2 join-group 1073741824
r -t 0.600133333333333 -s 0 -d 1 -p encap -e 230 -c 0 -i 61 -a 0 -x {0.2 4.0 -1 ------- null}
+ -t 0.600133333333333 -s 1 -d 4 -p encap -e 230 -c 0 -i 61 -a 0 -x {0.2 4.0 -1 ------- null}
- -t 0.600133333333333 -s 1 -d 4 -p encap -e 230 -c 0 -i 61 -a 0 -x {0.2 4.0 -1 ------- null}
h -t 0.600133333333333 -s 1 -d 4 -p encap -e 230 -c 0 -i 61 -a 0 -x {0.2 4.0 -1 ------- null}
- -t 0.6024 -s 0 -d 1 -p encap -e 230 -c 0 -i 67 -a 0 -x {0.2 4.0 -1 ------- null}
h -t 0.6024 -s 0 -d 1 -p encap -e 230 -c 0 -i 67 -a 0 -x {0.2 4.0 -1 ------- null}
+ -t 0.6025 -s 0 -d 1 -p encap -e 230 -c 0 -i 109 -a 0 -x {0.2 4.0 -1 ------- null}
r -t 0.604 -s 1 -d 4 -p encap -e 230 -c 0 -i 57 -a 0 -x {0.2 4.0 -1 ------- null}
+ -t 0.604 -s 4 -d 1 -p cbr -e 210 -c 0 -i 56 -a 0 -x {0.1 1073741824.0 28 ------- null}
- -t 0.604 -s 4 -d 1 -p cbr -e 210 -c 0 -i 56 -a 0 -x {0.1 1073741824.0 28 ------- null}
h -t 0.604 -s 4 -d 1 -p cbr -e 210 -c 0 -i 56 -a 0 -x {0.1 1073741824.0 -1 ------- null}
+ -t 0.60625 -s 0 -d 1 -p encap -e 230 -c 0 -i 111 -a 0 -x {0.2 4.0 -1 ------- null}
r -t 0.606266666666666 -s 0 -d 1 -p encap -e 230 -c 0 -i 63 -a 0 -x {0.2 4.0 -1 ------- null}
+ -t 0.606266666666666 -s 1 -d 4 -p encap -e 230 -c 0 -i 63 -a 0 -x {0.2 4.0 -1 ------- null}
- -t 0.606266666666666 -s 1 -d 4 -p encap -e 230 -c 0 -i 63 -a 0 -x {0.2 4.0 -1 ------- null}
h -t 0.606266666666666 -s 1 -d 4 -p encap -e 230 -c 0 -i 63 -a 0 -x {0.2 4.0 -1 ------- null}
- -t 0.608533333333333 -s 0 -d 1 -p encap -e 230 -c 0 -i 69 -a 0 -x {0.2 4.0 -1 ------- null}
h -t 0.608533333333333 -s 0 -d 1 -p encap -e 230 -c 0 -i 69 -a 0 -x {0.2 4.0 -1 ------- null}
+ -t 0.61 -s 0 -d 1 -p encap -e 230 -c 0 -i 113 -a 0 -x {0.2 4.0 -1 ------- null}
r -t 0.610133333333333 -s 1 -d 4 -p encap -e 230 -c 0 -i 59 -a 0 -x {0.2 4.0 -1 ------- null}
+ -t 0.610133333333333 -s 4 -d 1 -p cbr -e 210 -c 0 -i 58 -a 0 -x {0.1 1073741824.0 29 ------- null}
- -t 0.610133333333333 -s 4 -d 1 -p cbr -e 210 -c 0 -i 58 -a 0 -x {0.1 1073741824.0 29 ------- null}
h -t 0.610133333333333 -s 4 -d 1 -p cbr -e 210 -c 0 -i 58 -a 0 -x {0.1 1073741824.0 -1 ------- null}
r -t 0.6124 -s 0 -d 1 -p encap -e 230 -c 0 -i 65 -a 0 -x {0.2 4.0 -1 ------- null}
+ -t 0.6124 -s 1 -d 4 -p encap -e 230 -c 0 -i 65 -a 0 -x {0.2 4.0 -1 ------- null}
- -t 0.6124 -s 1 -d 4 -p encap -e 230 -c 0 -i 65 -a 0 -x {0.2 4.0 -1 ------- null}
h -t 0.6124 -s 1 -d 4 -p encap -e 230 -c 0 -i 65 -a 0 -x {0.2 4.0 -1 ------- null}
+ -t 0.61375 -s 0 -d 1 -p encap -e 230 -c 0 -i 115 -a 0 -x {0.2 4.0 -1 ------- null}
- -t 0.614666666666666 -s 0 -d 1 -p encap -e 230 -c 0 -i 71 -a 0 -x {0.2 4.0 -1 ------- null}
h -t 0.614666666666666 -s 0 -d 1 -p encap -e 230 -c 0 -i 71 -a 0 -x {0.2 4.0 -1 ------- null}
r -t 0.616266666666666 -s 1 -d 4 -p encap -e 230 -c 0 -i 61 -a 0 -x {0.2 4.0 -1 ------- null}
+ -t 0.616266666666666 -s 4 -d 1 -p cbr -e 210 -c 0 -i 60 -a 0 -x {0.1 1073741824.0 30 ------- null}
- -t 0.616266666666666 -s 4 -d 1 -p cbr -e 210 -c 0 -i 60 -a 0 -x {0.1 1073741824.0 30 ------- null}
h -t 0.616266666666666 -s 4 -d 1 -p cbr -e 210 -c 0 -i 60 -a 0 -x {0.1 1073741824.0 -1 ------- null}
+ -t 0.6175 -s 0 -d 1 -p encap -e 230 -c 0 -i 117 -a 0 -x {0.2 4.0 -1 ------- null}
r -t 0.618533333333333 -s 0 -d 1 -p encap -e 230 -c 0 -i 67 -a 0 -x {0.2 4.0 -1 ------- null}
+ -t 0.618533333333333 -s 1 -d 4 -p encap -e 230 -c 0 -i 67 -a 0 -x {0.2 4.0 -1 ------- null}
- -t 0.618533333333333 -s 1 -d 4 -p encap -e 230 -c 0 -i 67 -a 0 -x {0.2 4.0 -1 ------- null}
h -t 0.618533333333333 -s 1 -d 4 -p encap -e 230 -c 0 -i 67 -a 0 -x {0.2 4.0 -1 ------- null}
r -t 0.6196 -s 4 -d 1 -p cbr -e 210 -c 0 -i 56 -a 0 -x {0.1 1073741824.0 28 ------- null}
+ -t 0.6196 -s 1 -d 2 -p cbr -e 210 -c 0 -i 56 -a 0 -x {0.1 1073741824.0 28 ------- null}
- -t 0.6196 -s 1 -d 2 -p cbr -e 210 -c 0 -i 56 -a 0 -x {0.1 1073741824.0 28 ------- null}
h -t 0.6196 -s 1 -d 2 -p cbr -e 210 -c 0 -i 56 -a 0 -x {0.1 1073741824.0 -1 ------- null}
- -t 0.6208 -s 0 -d 1 -p encap -e 230 -c 0 -i 73 -a 0 -x {0.2 4.0 -1 ------- null}
h -t 0.6208 -s 0 -d 1 -p encap -e 230 -c 0 -i 73 -a 0 -x {0.2 4.0 -1 ------- null}
+ -t 0.62125 -s 0 -d 1 -p encap -e 230 -c 0 -i 119 -a 0 -x {0.2 4.0 -1 ------- null}
r -t 0.6224 -s 1 -d 4 -p encap -e 230 -c 0 -i 63 -a 0 -x {0.2 4.0 -1 ------- null}
+ -t 0.6224 -s 4 -d 1 -p cbr -e 210 -c 0 -i 62 -a 0 -x {0.1 1073741824.0 31 ------- null}
- -t 0.6224 -s 4 -d 1 -p cbr -e 210 -c 0 -i 62 -a 0 -x {0.1 1073741824.0 31 ------- null}
h -t 0.6224 -s 4 -d 1 -p cbr -e 210 -c 0 -i 62 -a 0 -x {0.1 1073741824.0 -1 ------- null}
r -t 0.624666666666666 -s 0 -d 1 -p encap -e 230 -c 0 -i 69 -a 0 -x {0.2 4.0 -1 ------- null}
+ -t 0.624666666666666 -s 1 -d 4 -p encap -e 230 -c 0 -i 69 -a 0 -x {0.2 4.0 -1 ------- null}
- -t 0.624666666666666 -s 1 -d 4 -p encap -e 230 -c 0 -i 69 -a 0 -x {0.2 4.0 -1 ------- null}
h -t 0.624666666666666 -s 1 -d 4 -p encap -e 230 -c 0 -i 69 -a 0 -x {0.2 4.0 -1 ------- null}
+ -t 0.625 -s 0 -d 1 -p encap -e 230 -c 0 -i 121 -a 0 -x {0.2 4.0 -1 ------- null}
r -t 0.625733333333333 -s 4 -d 1 -p cbr -e 210 -c 0 -i 58 -a 0 -x {0.1 1073741824.0 29 ------- null}
+ -t 0.625733333333333 -s 1 -d 2 -p cbr -e 210 -c 0 -i 58 -a 0 -x {0.1 1073741824.0 29 ------- null}