s 2.000000000 _1_ AGT  --- 0 tcp 40 [0 0 0 0] ------- [1:0 3:0 32 0] [0 0] 0 0
r 2.000000000 _1_ RTR  --- 0 tcp 40 [0 0 0 0] ------- [1:0 3:0 32 0] [0 0] 0 0
s 2.000000000 _1_ RTR  --- 0 AODV 48 [0 0 0 0] ------- [1:255 -1:255 30 0] [0x2 1 1 [3 0] [1 4]] (REQUEST)
r 2.001508648 _8_ RTR  --- 0 AODV 48 [0 ffffffff 1 800] ------- [1:255 -1:255 30 0] [0x2 1 1 [3 0] [1 4]] (REQUEST)
r 2.001508824 _2_ RTR  --- 0 AODV 48 [0 ffffffff 1 800] ------- [1:255 -1:255 30 0] [0x2 1 1 [3 0] [1 4]] (REQUEST)
r 2.001508825 _4_ RTR  --- 0 AODV 48 [0 ffffffff 1 800] ------- [1:255 -1:255 30 0] [0x2 1 1 [3 0] [1 4]] (REQUEST)
s 2.004638443 _4_ RTR  --- 0 AODV 48 [0 ffffffff 1 800] ------- [4:255 -1:255 29 0] [0x2 2 1 [3 0] [1 4]] (REQUEST)
r 2.005786829 _8_ RTR  --- 0 AODV 48 [0 ffffffff 4 800] ------- [4:255 -1:255 29 0] [0x2 2 1 [3 0] [1 4]] (REQUEST)
r 2.005786957 _0_ RTR  --- 0 AODV 48 [0 ffffffff 4 800] ------- [4:255 -1:255 29 0] [0x2 2 1 [3 0] [1 4]] (REQUEST)
r 2.005787064 _2_ RTR  --- 0 AODV 48 [0 ffffffff 4 800] ------- [4:255 -1:255 29 0] [0x2 2 1 [3 0] [1 4]] (REQUEST)
r 2.005787117 _9_ RTR  --- 0 AODV 48 [0 ffffffff 4 800] ------- [4:255 -1:255 29 0] [0x2 2 1 [3 0] [1 4]] (REQUEST)
r 2.005787132 _5_ RTR  --- 0 AODV 48 [0 ffffffff 4 800] ------- [4:255 -1:255 29 0] [0x2 2 1 [3 0] [1 4]] (REQUEST)
r 2.005787268 _1_ RTR  --- 0 AODV 48 [0 ffffffff 4 800] ------- [4:255 -1:255 29 0] [0x2 2 1 [3 0] [1 4]] (REQUEST)
s 2.005920382 _8_ RTR  --- 0 AODV 48 [0 ffffffff 1 800] ------- [8:255 -1:255 29 0] [0x2 2 1 [3 0] [1 4]] (REQUEST)
r 2.006908662 _2_ RTR  --- 0 AODV 48 [0 ffffffff 8 800] ------- [8:255 -1:255 29 0] [0x2 2 1 [3 0] [1 4]] (REQUEST)
r 2.006908768 _4_ RTR  --- 0 AODV 48 [0 ffffffff 8 800] ------- [8:255 -1:255 29 0] [0x2 2 1 [3 0] [1 4]] (REQUEST)
r 2.006908824 _9_ RTR  --- 0 AODV 48 [0 ffffffff 8 800] ------- [8:255 -1:255 29 0] [0x2 2 1 [3 0] [1 4]] (REQUEST)
r 2.006908831 _5_ RTR  --- 0 AODV 48 [0 ffffffff 8 800] ------- [8:255 -1:255 29 0] [0x2 2 1 [3 0] [1 4]] (REQUEST)
r 2.006908992 _0_ RTR  --- 0 AODV 48 [0 ffffffff 8 800] ------- [8:255 -1:255 29 0] [0x2 2 1 [3 0] [1 4]] (REQUEST)
r 2.006909030 _1_ RTR  --- 0 AODV 48 [0 ffffffff 8 800] ------- [8:255 -1:255 29 0] [0x2 2 1 [3 0] [1 4]] (REQUEST)
r 2.006909059 _3_ RTR  --- 0 AODV 48 [0 ffffffff 8 800] ------- [8:255 -1:255 29 0] [0x2 2 1 [3 0] [1 4]] (REQUEST)
s 2.006909059 _3_ RTR  --- 0 AODV 44 [0 0 0 0] ------- [3:255 1:255 30 8] [0x4 1 [3 4] 10.000000] (REPLY)
s 2.008877908 _9_ RTR  --- 0 AODV 48 [0 ffffffff 4 800] ------- [9:255 -1:255 28 0] [0x2 3 1 [3 0] [1 4]] (REQUEST)
s 2.009500379 _2_ RTR  --- 0 AODV 48 [0 ffffffff 1 800] ------- [2:255 -1:255 29 0] [0x2 2 1 [3 0] [1 4]] (REQUEST)
r 2.010986400 _5_ RTR  --- 0 AODV 48 [0 ffffffff 2 800] ------- [2:255 -1:255 29 0] [0x2 2 1 [3 0] [1 4]] (REQUEST)
r 2.010986403 _9_ RTR  --- 0 AODV 48 [0 ffffffff 2 800] ------- [2:255 -1:255 29 0] [0x2 2 1 [3 0] [1 4]] (REQUEST)
r 2.010986446 _8_ RTR  --- 0 AODV 48 [0 ffffffff 2 800] ------- [2:255 -1:255 29 0] [0x2 2 1 [3 0] [1 4]] (REQUEST)
r 2.010986566 _3_ RTR  --- 0 AODV 48 [0 ffffffff 2 800] ------- [2:255 -1:255 29 0] [0x2 2 1 [3 0] [1 4]] (REQUEST)
r 2.010986788 _4_ RTR  --- 0 AODV 48 [0 ffffffff 2 800] ------- [2:255 -1:255 29 0] [0x2 2 1 [3 0] [1 4]] (REQUEST)
r 2.010986793 _0_ RTR  --- 0 AODV 48 [0 ffffffff 2 800] ------- [2:255 -1:255 29 0] [0x2 2 1 [3 0] [1 4]] (REQUEST)
r 2.010986894 _7_ RTR  --- 0 AODV 48 [0 ffffffff 2 800] ------- [2:255 -1:255 29 0] [0x2 2 1 [3 0] [1 4]] (REQUEST)
r 2.010986904 _6_ RTR  --- 0 AODV 48 [0 ffffffff 2 800] ------- [2:255 -1:255 29 0] [0x2 2 1 [3 0] [1 4]] (REQUEST)
r 2.010986991 _1_ RTR  --- 0 AODV 48 [0 ffffffff 2 800] ------- [2:255 -1:255 29 0] [0x2 2 1 [3 0] [1 4]] (REQUEST)
r 2.011964420 _5_ RTR  --- 0 AODV 48 [0 ffffffff 9 800] ------- [9:255 -1:255 28 0] [0x2 3 1 [3 0] [1 4]] (REQUEST)
r 2.011964639 _2_ RTR  --- 0 AODV 48 [0 ffffffff 9 800] ------- [9:255 -1:255 28 0] [0x2 3 1 [3 0] [1 4]] (REQUEST)
r 2.011964805 _3_ RTR  --- 0 AODV 48 [0 ffffffff 9 800] ------- [9:255 -1:255 28 0] [0x2 3 1 [3 0] [1 4]] (REQUEST)
r 2.011964845 _8_ RTR  --- 0 AODV 48 [0 ffffffff 9 800] ------- [9:255 -1:255 28 0] [0x2 3 1 [3 0] [1 4]] (REQUEST)
r 2.011964888 _0_ RTR  --- 0 AODV 48 [0 ffffffff 9 800] ------- [9:255 -1:255 28 0] [0x2 3 1 [3 0] [1 4]] (REQUEST)
r 2.011965077 _4_ RTR  --- 0 AODV 48 [0 ffffffff 9 800] ------- [9:255 -1:255 28 0] [0x2 3 1 [3 0] [1 4]] (REQUEST)
r 2.011965093 _7_ RTR  --- 0 AODV 48 [0 ffffffff 9 800] ------- [9:255 -1:255 28 0] [0x2 3 1 [3 0] [1 4]] (REQUEST)
r 2.011965139 _6_ RTR  --- 0 AODV 48 [0 ffffffff 9 800] ------- [9:255 -1:255 28 0] [0x2 3 1 [3 0] [1 4]] (REQUEST)
s 2.012175608 _0_ RTR  --- 0 AODV 48 [0 ffffffff 4 800] ------- [0:255 -1:255 28 0] [0x2 3 1 [3 0] [1 4]] (REQUEST)
s 2.013567784 _6_ RTR  --- 0 AODV 48 [0 ffffffff 2 800] ------- [6:255 -1:255 28 0] [0x2 3 1 [3 0] [1 4]] (REQUEST)
r 2.013748836 _8_ RTR  --- 0 AODV 44 [13a 8 3 800] ------- [3:255 1:255 30 8] [0x4 1 [3 4] 10.000000] (REPLY)
f 2.013748836 _8_ RTR  --- 0 AODV 44 [13a 8 3 800] ------- [3:255 1:255 29 1] [0x4 2 [3 4] 10.000000] (REPLY)
s 2.014150367 _5_ RTR  --- 0 AODV 48 [0 ffffffff 4 800] ------- [5:255 -1:255 28 0] [0x2 3 1 [3 0] [1 4]] (REQUEST)
s 2.014474304 _7_ RTR  --- 0 AODV 48 [0 ffffffff 2 800] ------- [7:255 -1:255 28 0] [0x2 3 1 [3 0] [1 4]] (REQUEST)
r 2.017785503 _9_ RTR  --- 0 AODV 48 [0 ffffffff 0 800] ------- [0:255 -1:255 28 0] [0x2 3 1 [3 0] [1 4]] (REQUEST)
r 2.017785520 _5_ RTR  --- 0 AODV 48 [0 ffffffff 0 800] ------- [0:255 -1:255 28 0] [0x2 3 1 [3 0] [1 4]] (REQUEST)
r 2.017785532 _4_ RTR  --- 0 AODV 48 [0 ffffffff 0 800] ------- [0:255 -1:255 28 0] [0x2 3 1 [3 0] [1 4]] (REQUEST)
r 2.017785629 _8_ RTR  --- 0 AODV 48 [0 ffffffff 0 800] ------- [0:255 -1:255 28 0] [0x2 3 1 [3 0] [1 4]] (REQUEST)
r 2.017785645 _2_ RTR  --- 0 AODV 48 [0 ffffffff 0 800] ------- [0:255 -1:255 28 0] [0x2 3 1 [3 0] [1 4]] (REQUEST)
r 2.019529573 _1_ RTR  --- 0 AODV 44 [13a 1 8 800] ------- [3:255 1:255 29 1] [0x4 2 [3 4] 10.000000] (REPLY)
s 2.019529573 _1_ RTR  --- 0 tcp 40 [0 0 0 0] ------- [1:0 3:0 30 8] [0 0] 0 0
r 2.021535516 _8_ RTR  --- 0 tcp 40 [13a 8 1 800] ------- [1:0 3:0 30 8] [0 0] 1 0
f 2.021535516 _8_ RTR  --- 0 tcp 40 [13a 8 1 800] ------- [1:0 3:0 29 3] [0 0] 1 0
r 2.023441547 _3_ AGT  --- 0 tcp 40 [13a 3 8 800] ------- [1:0 3:0 29 3] [0 0] 2 0
s 2.023441547 _3_ AGT  --- 1 ack 40 [0 0 0 0] ------- [3:0 1:0 32 0] [0 0] 0 0
r 2.023441547 _3_ RTR  --- 1 ack 40 [0 0 0 0] ------- [3:0 1:0 32 0] [0 0] 0 0
s 2.023441547 _3_ RTR  --- 1 ack 40 [0 0 0 0] ------- [3:0 1:0 30 8] [0 0] 0 0
r 2.024673949 _9_ RTR  --- 0 AODV 48 [0 ffffffff 5 800] ------- [5:255 -1:255 28 0] [0x2 3 1 [3 0] [1 4]] (REQUEST)
r 2.024674165 _2_ RTR  --- 0 AODV 48 [0 ffffffff 5 800] ------- [5:255 -1:255 28 0] [0x2 3 1 [3 0] [1 4]] (REQUEST)
r 2.024674316 _3_ RTR  --- 0 AODV 48 [0 ffffffff 5 800] ------- [5:255 -1:255 28 0] [0x2 3 1 [3 0] [1 4]] (REQUEST)
r 2.024674381 _8_ RTR  --- 0 AODV 48 [0 ffffffff 5 800] ------- [5:255 -1:255 28 0] [0x2 3 1 [3 0] [1 4]] (REQUEST)
r 2.024674434 _0_ RTR  --- 0 AODV 48 [0 ffffffff 5 800] ------- [5:255 -1:255 28 0] [0x2 3 1 [3 0] [1 4]] (REQUEST)
r 2.024674605 _7_ RTR  --- 0 AODV 48 [0 ffffffff 5 800] ------- [5:255 -1:255 28 0] [0x2 3 1 [3 0] [1 4]] (REQUEST)
r 2.024674621 _4_ RTR  --- 0 AODV 48 [0 ffffffff 5 800] ------- [5:255 -1:255 28 0] [0x2 3 1 [3 0] [1 4]] (REQUEST)
r 2.024674651 _6_ RTR  --- 0 AODV 48 [0 ffffffff 5 800] ------- [5:255 -1:255 28 0] [0x2 3 1 [3 0] [1 4]] (REQUEST)
r 2.026426347 _8_ RTR  --- 1 ack 40 [13a 8 3 800] ------- [3:0 1:0 30 8] [0 0] 1 0
f 2.026426347 _8_ RTR  --- 1 ack 40 [13a 8 3 800] ------- [3:0 1:0 29 1] [0 0] 1 0
r 2.028772291 _1_ AGT  --- 1 ack 40 [13a 1 8 800] ------- [3:0 1:0 29 1] [0 0] 2 0
s 2.028772291 _1_ AGT  --- 2 tcp 1040 [0 0 0 0] ------- [1:0 3:0 32 0] [1 0] 0 0
r 2.028772291 _1_ RTR  --- 2 tcp 1040 [0 0 0 0] ------- [1:0 3:0 32 0] [1 0] 0 0
s 2.028772291 _1_ AGT  --- 3 tcp 1040 [0 0 0 0] ------- [1:0 3:0 32 0] [2 0] 0 0
r 2.028772291 _1_ RTR  --- 3 tcp 1040 [0 0 0 0] ------- [1:0 3:0 32 0] [2 0] 0 0
s 2.028772291 _1_ RTR  --- 2 tcp 1040 [0 0 0 0] ------- [1:0 3:0 30 8] [1 0] 0 0
s 2.028772291 _1_ RTR  --- 3 tcp 1040 [0 0 0 0] ------- [1:0 3:0 30 8] [2 0] 0 0
r 2.038798234 _8_ RTR  --- 2 tcp 1040 [13a 8 1 800] ------- [1:0 3:0 30 8] [1 0] 1 0
f 2.038798234 _8_ RTR  --- 2 tcp 1040 [13a 8 1 800] ------- [1:0 3:0 29 3] [1 0] 1 0
r 2.048684826 _8_ RTR  --- 3 tcp 1040 [13a 8 1 800] ------- [1:0 3:0 30 8] [2 0] 1 0
f 2.048684826 _8_ RTR  --- 3 tcp 1040 [13a 8 1 800] ------- [1:0 3:0 29 3] [2 0] 1 0
r 2.058850857 _3_ AGT  --- 2 tcp 1040 [13a 3 8 800] ------- [1:0 3:0 29 3] [1 0] 2 0
s 2.058850857 _3_ AGT  --- 4 ack 40 [0 0 0 0] ------- [3:0 1:0 32 0] [1 0] 0 0
r 2.058850857 _3_ RTR  --- 4 ack 40 [0 0 0 0] ------- [3:0 1:0 32 0] [1 0] 0 0
s 2.058850857 _3_ RTR  --- 4 ack 40 [0 0 0 0] ------- [3:0 1:0 30 8] [1 0] 0 0
r 2.060173301 _7_ RTR  --- 0 AODV 48 [0 ffffffff 6 800] ------- [6:255 -1:255 28 0] [0x2 3 1 [3 0] [1 4]] (REQUEST)
r 2.060173532 _3_ RTR  --- 0 AODV 48 [0 ffffffff 6 800] ------- [6:255 -1:255 28 0] [0x2 3 1 [3 0] [1 4]] (REQUEST)
r 2.060173906 _5_ RTR  --- 0 AODV 48 [0 ffffffff 6 800] ------- [6:255 -1:255 28 0] [0x2 3 1 [3 0] [1 4]] (REQUEST)
r 2.060173924 _9_ RTR  --- 0 AODV 48 [0 ffffffff 6 800] ------- [6:255 -1:255 28 0] [0x2 3 1 [3 0] [1 4]] (REQUEST)
r 2.060173925 _2_ RTR  --- 0 AODV 48 [0 ffffffff 6 800] ------- [6:255 -1:255 28 0] [0x2 3 1 [3 0] [1 4]] (REQUEST)
r 2.061171415 _6_ RTR  --- 0 AODV 48 [0 ffffffff 7 800] ------- [7:255 -1:255 28 0] [0x2 3 1 [3 0] [1 4]] (REQUEST)
r 2.061171629 _3_ RTR  --- 0 AODV 48 [0 ffffffff 7 800] ------- [7:255 -1:255 28 0] [0x2 3 1 [3 0] [1 4]] (REQUEST)
r 2.061171974 _5_ RTR  --- 0 AODV 48 [0 ffffffff 7 800] ------- [7:255 -1:255 28 0] [0x2 3 1 [3 0] [1 4]] (REQUEST)
r 2.061171991 _9_ RTR  --- 0 AODV 48 [0 ffffffff 7 800] ------- [7:255 -1:255 28 0] [0x2 3 1 [3 0] [1 4]] (REQUEST)
r 2.061172028 _2_ RTR  --- 0 AODV 48 [0 ffffffff 7 800] ------- [7:255 -1:255 28 0] [0x2 3 1 [3 0] [1 4]] (REQUEST)
r 2.062823659 _8_ RTR  --- 4 ack 40 [13a 8 3 800] ------- [3:0 1:0 30 8] [1 0] 1 0
f 2.062823659 _8_ RTR  --- 4 ack 40 [13a 8 3 800] ------- [3:0 1:0 29 1] [1 0] 1 0
r 2.073049690 _3_ AGT  --- 3 tcp 1040 [13a 3 8 800] ------- [1:0 3:0 29 3] [2 0] 2 0
s 2.073049690 _3_ AGT  --- 5 ack 40 [0 0 0 0] ------- [3:0 1:0 32 0] [2 0] 0 0
r 2.073049690 _3_ RTR  --- 5 ack 40 [0 0 0 0] ------- [3:0 1:0 32 0] [2 0] 0 0
s 2.073049690 _3_ RTR  --- 5 ack 40 [0 0 0 0] ------- [3:0 1:0 30 8] [2 0] 0 0
r 2.074876311 _1_ AGT  --- 4 ack 40 [13a 1 8 800] ------- [3:0 1:0 29 1] [1 0] 2 0
s 2.074876311 _1_ AGT  --- 6 tcp 1040 [0 0 0 0] ------- [1:0 3:0 32 0] [3 0] 0 0
r 2.074876311 _1_ RTR  --- 6 tcp 1040 [0 0 0 0] ------- [1:0 3:0 32 0] [3 0] 0 0
s 2.074876311 _1_ AGT  --- 7 tcp 1040 [0 0 0 0] ------- [1:0 3:0 32 0] [4 0] 0 0
r 2.074876311 _1_ RTR  --- 7 tcp 1040 [0 0 0 0] ------- [1:0 3:0 32 0] [4 0] 0 0
s 2.074876311 _1_ RTR  --- 6 tcp 1040 [0 0 0 0] ------- [1:0 3:0 30 8] [3 0] 0 0
s 2.074876311 _1_ RTR  --- 7 tcp 1040 [0 0 0 0] ------- [1:0 3:0 30 8] [4 0] 0 0
r 2.084922254 _8_ RTR  --- 6 tcp 1040 [13a 8 1 800] ------- [1:0 3:0 30 8] [3 0] 1 0
f 2.084922254 _8_ RTR  --- 6 tcp 1040 [13a 8 1 800] ------- [1:0 3:0 29 3] [3 0] 1 0
r 2.094848285 _3_ AGT  --- 6 tcp 1040 [13a 3 8 800] ------- [1:0 3:0 29 3] [3 0] 2 0
s 2.094848285 _3_ AGT  --- 8 ack 40 [0 0 0 0] ------- [3:0 1:0 32 0] [3 0] 0 0
r 2.094848285 _3_ RTR  --- 8 ack 40 [0 0 0 0] ------- [3:0 1:0 32 0] [3 0] 0 0
s 2.094848285 _3_ RTR  --- 8 ack 40 [0 0 0 0] ------- [3:0 1:0 30 8] [3 0] 0 0
r 2.105099337 _8_ RTR  --- 7 tcp 1040 [13a 8 1 800] ------- [1:0 3:0 30 8] [4 0] 1 0
f 2.105099337 _8_ RTR  --- 7 tcp 1040 [13a 8 1 800] ------- [1:0 3:0 29 3] [4 0] 1 0
r 2.106995829 _8_ RTR  --- 5 ack 40 [13a 8 3 800] ------- [3:0 1:0 30 8] [2 0] 1 0
f 2.106995829 _8_ RTR  --- 5 ack 40 [13a 8 3 800] ------- [3:0 1:0 29 1] [2 0] 1 0
r 2.108822537 _8_ RTR  --- 8 ack 40 [13a 8 3 800] ------- [3:0 1:0 30 8] [3 0] 1 0
f 2.108822537 _8_ RTR  --- 8 ack 40 [13a 8 3 800] ------- [3:0 1:0 29 1] [3 0] 1 0
r 2.118668567 _3_ AGT  --- 7 tcp 1040 [13a 3 8 800] ------- [1:0 3:0 29 3] [4 0] 2 0
s 2.118668567 _3_ AGT  --- 9 ack 40 [0 0 0 0] ------- [3:0 1:0 32 0] [4 0] 0 0
r 2.118668567 _3_ RTR  --- 9 ack 40 [0 0 0 0] ------- [3:0 1:0 32 0] [4 0] 0 0
s 2.118668567 _3_ RTR  --- 9 ack 40 [0 0 0 0] ------- [3:0 1:0 30 8] [4 0] 0 0
r 2.120714598 _8_ RTR  --- 9 ack 40 [13a 8 3 800] ------- [3:0 1:0 30 8] [4 0] 1 0
f 2.120714598 _8_ RTR  --- 9 ack 40 [13a 8 3 800] ------- [3:0 1:0 29 1] [4 0] 1 0
r 2.122620542 _1_ AGT  --- 5 ack 40 [13a 1 8 800] ------- [3:0 1:0 29 1] [2 0] 2 0
s 2.122620542 _1_ AGT  --- 10 tcp 1040 [0 0 0 0] ------- [1:0 3:0 32 0] [5 0] 0 0
r 2.122620542 _1_ RTR  --- 10 tcp 1040 [0 0 0 0] ------- [1:0 3:0 32 0] [5 0] 0 0
s 2.122620542 _1_ AGT  --- 11 tcp 1040 [0 0 0 0] ------- [1:0 3:0 32 0] [6 0] 0 0
r 2.122620542 _1_ RTR  --- 11 tcp 1040 [0 0 0 0] ------- [1:0 3:0 32 0] [6 0] 0 0
s 2.122620542 _1_ RTR  --- 10 tcp 1040 [0 0 0 0] ------- [1:0 3:0 30 8] [5 0] 0 0
s 2.122620542 _1_ RTR  --- 11 tcp 1040 [0 0 0 0] ------- [1:0 3:0 30 8] [6 0] 0 0
r 2.124467133 _1_ AGT  --- 8 ack 40 [13a 1 8 800] ------- [3:0 1:0 29 1] [3 0] 2 0
s 2.124467133 _1_ AGT  --- 12 tcp 1040 [0 0 0 0] ------- [1:0 3:0 32 0] [7 0] 0 0
r 2.124467133 _1_ RTR  --- 12 tcp 1040 [0 0 0 0] ------- [1:0 3:0 32 0] [7 0] 0 0
s 2.124467133 _1_ AGT  --- 13 tcp 1040 [0 0 0 0] ------- [1:0 3:0 32 0] [8 0] 0 0
r 2.124467133 _1_ RTR  --- 13 tcp 1040 [0 0 0 0] ------- [1:0 3:0 32 0] [8 0] 0 0
s 2.124467133 _1_ RTR  --- 12 tcp 1040 [0 0 0 0] ------- [1:0 3:0 30 8] [7 0] 0 0
s 2.124467133 _1_ RTR  --- 13 tcp 1040 [0 0 0 0] ------- [1:0 3:0 30 8] [8 0] 0 0
r 2.134493077 _8_ RTR  --- 10 tcp 1040 [13a 8 1 800] ------- [1:0 3:0 30 8] [5 0] 1 0
f 2.134493077 _8_ RTR  --- 10 tcp 1040 [13a 8 1 800] ------- [1:0 3:0 29 3] [5 0] 1 0
r 2.144559668 _8_ RTR  --- 11 tcp 1040 [13a 8 1 800] ------- [1:0 3:0 30 8] [6 0] 1 0
f 2.144559668 _8_ RTR  --- 11 tcp 1040 [13a 8 1 800] ------- [1:0 3:0 29 3] [6 0] 1 0
r 2.146445612 _1_ AGT  --- 9 ack 40 [13a 1 8 800] ------- [3:0 1:0 29 1] [4 0] 2 0
s 2.146445612 _1_ AGT  --- 14 tcp 1040 [0 0 0 0] ------- [1:0 3:0 32 0] [9 0] 0 0
r 2.146445612 _1_ RTR  --- 14 tcp 1040 [0 0 0 0] ------- [1:0 3:0 32 0] [9 0] 0 0
s 2.146445612 _1_ AGT  --- 15 tcp 1040 [0 0 0 0] ------- [1:0 3:0 32 0] [10 0] 0 0
r 2.146445612 _1_ RTR  --- 15 tcp 1040 [0 0 0 0] ------- [1:0 3:0 32 0] [10 0] 0 0
s 2.146445612 _1_ RTR  --- 14 tcp 1040 [0 0 0 0] ------- [1:0 3:0 30 8] [9 0] 0 0
s 2.146445612 _1_ RTR  --- 15 tcp 1040 [0 0 0 0] ------- [1:0 3:0 30 8] [10 0] 0 0
r 2.156351556 _8_ RTR  --- 12 tcp 1040 [13a 8 1 800] ------- [1:0 3:0 30 8] [7 0] 1 0
f 2.156351556 _8_ RTR  --- 12 tcp 1040 [13a 8 1 800] ------- [1:0 3:0 29 3] [7 0] 1 0
r 2.166218147 _8_ RTR  --- 13 tcp 1040 [13a 8 1 800] ------- [1:0 3:0 30 8] [8 0] 1 0
f 2.166218147 _8_ RTR  --- 13 tcp 1040 [13a 8 1 800] ------- [1:0 3:0 29 3] [8 0] 1 0
r 2.176224178 _3_ AGT  --- 10 tcp 1040 [13a 3 8 800] ------- [1:0 3:0 29 3] [5 0] 2 0
s 2.176224178 _3_ AGT  --- 16 ack 40 [0 0 0 0] ------- [3:0 1:0 32 0] [5 0] 0 0
r 2.176224178 _3_ RTR  --- 16 ack 40 [0 0 0 0] ------- [3:0 1:0 32 0] [5 0] 0 0
s 2.176224178 _3_ RTR  --- 16 ack 40 [0 0 0 0] ------- [3:0 1:0 30 8] [5 0] 0 0
r 2.178170209 _8_ RTR  --- 16 ack 40 [13a 8 3 800] ------- [3:0 1:0 30 8] [5 0] 1 0
f 2.178170209 _8_ RTR  --- 16 ack 40 [13a 8 3 800] ------- [3:0 1:0 29 1] [5 0] 1 0
r 2.188096239 _3_ AGT  --- 11 tcp 1040 [13a 3 8 800] ------- [1:0 3:0 29 3] [6 0] 2 0
s 2.188096239 _3_ AGT  --- 17 ack 40 [0 0 0 0] ------- [3:0 1:0 32 0] [6 0] 0 0
r 2.188096239 _3_ RTR  --- 17 ack 40 [0 0 0 0] ------- [3:0 1:0 32 0] [6 0] 0 0
s 2.188096239 _3_ RTR  --- 17 ack 40 [0 0 0 0] ------- [3:0 1:0 30 8] [6 0] 0 0
r 2.190002270 _8_ RTR  --- 17 ack 40 [13a 8 3 800] ------- [3:0 1:0 30 8] [6 0] 1 0
f 2.190002270 _8_ RTR  --- 17 ack 40 [13a 8 3 800] ------- [3:0 1:0 29 1] [6 0] 1 0
r 2.200008301 _3_ AGT  --- 12 tcp 1040 [13a 3 8 800] ------- [1:0 3:0 29 3] [7 0] 2 0
s 2.200008301 _3_ AGT  --- 18 ack 40 [0 0 0 0] ------- [3:0 1:0 32 0] [7 0] 0 0
r 2.200008301 _3_ RTR  --- 18 ack 40 [0 0 0 0] ------- [3:0 1:0 32 0] [7 0] 0 0
s 2.200008301 _3_ RTR  --- 18 ack 40 [0 0 0 0] ------- [3:0 1:0 30 8] [7 0] 0 0
r 2.201854332 _8_ RTR  --- 18 ack 40 [13a 8 3 800] ------- [3:0 1:0 30 8] [7 0] 1 0
f 2.201854332 _8_ RTR  --- 18 ack 40 [13a 8 3 800] ------- [3:0 1:0 29 1] [7 0] 1 0
r 2.211720362 _3_ AGT  --- 13 tcp 1040 [13a 3 8 800] ------- [1:0 3:0 29 3] [8 0] 2 0
s 2.211720362 _3_ AGT  --- 19 ack 40 [0 0 0 0] ------- [3:0 1:0 32 0] [8 0] 0 0
r 2.211720362 _3_ RTR  --- 19 ack 40 [0 0 0 0] ------- [3:0 1:0 32 0] [8 0] 0 0
s 2.211720362 _3_ RTR  --- 19 ack 40 [0 0 0 0] ------- [3:0 1:0 30 8] [8 0] 0 0
r 2.213846393 _8_ RTR  --- 19 ack 40 [13a 8 3 800] ------- [3:0 1:0 30 8] [8 0] 1 0
f 2.213846393 _8_ RTR  --- 19 ack 40 [13a 8 3 800] ------- [3:0 1:0 29 1] [8 0] 1 0
r 2.223842769 _8_ RTR  --- 14 tcp 1040 [13a 8 1 800] ------- [1:0 3:0 30 8] [9 0] 1 0
f 2.223842769 _8_ RTR  --- 14 tcp 1040 [13a 8 1 800] ------- [1:0 3:0 29 3] [9 0] 1 0
r 2.233729360 _8_ RTR  --- 15 tcp 1040 [13a 8 1 800] ------- [1:0 3:0 30 8] [10 0] 1 0
f 2.233729360 _8_ RTR  --- 15 tcp 1040 [13a 8 1 800] ------- [1:0 3:0 29 3] [10 0] 1 0
r 2.235635304 _1_ AGT  --- 16 ack 40 [13a 1 8 800] ------- [3:0 1:0 29 1] [5 0] 2 0
s 2.235635304 _1_ AGT  --- 20 tcp 1040 [0 0 0 0] ------- [1:0 3:0 32 0] [11 0] 0 0
r 2.235635304 _1_ RTR  --- 20 tcp 1040 [0 0 0 0] ------- [1:0 3:0 32 0] [11 0] 0 0
s 2.235635304 _1_ AGT  --- 21 tcp 1040 [0 0 0 0] ------- [1:0 3:0 32 0] [12 0] 0 0
r 2.235635304 _1_ RTR  --- 21 tcp 1040 [0 0 0 0] ------- [1:0 3:0 32 0] [12 0] 0 0
s 2.235635304 _1_ RTR  --- 20 tcp 1040 [0 0 0 0] ------- [1:0 3:0 30 8] [11 0] 0 0
s 2.235635304 _1_ RTR  --- 21 tcp 1040 [0 0 0 0] ------- [1:0 3:0 30 8] [12 0] 0 0
r 2.237581895 _1_ AGT  --- 17 ack 40 [13a 1 8 800] ------- [3:0 1:0 29 1] [6 0] 2 0
s 2.237581895 _1_ AGT  --- 22 tcp 1040 [0 0 0 0] ------- [1:0 3:0 32 0] [13 0] 0 0
r 2.237581895 _1_ RTR  --- 22 tcp 1040 [0 0 0 0] ------- [1:0 3:0 32 0] [13 0] 0 0
s 2.237581895 _1_ AGT  --- 23 tcp 1040 [0 0 0 0] ------- [1:0 3:0 32 0] [14 0] 0 0
r 2.237581895 _1_ RTR  --- 23 tcp 1040 [0 0 0 0] ------- [1:0 3:0 32 0] [14 0] 0 0
s 2.237581895 _1_ RTR  --- 22 tcp 1040 [0 0 0 0] ------- [1:0 3:0 30 8] [13 0] 0 0
s 2.237581895 _1_ RTR  --- 23 tcp 1040 [0 0 0 0] ------- [1:0 3:0 30 8] [14 0] 0 0
r 2.247787839 _8_ RTR  --- 20 tcp 1040 [13a 8 1 800] ------- [1:0 3:0 30 8] [11 0] 1 0
f 2.247787839 _8_ RTR  --- 20 tcp 1040 [13a 8 1 800] ------- [1:0 3:0 29 3] [11 0] 1 0
r 2.249833783 _1_ AGT  --- 18 ack 40 [13a 1 8 800] ------- [3:0 1:0 29 1] [7 0] 2 0
s 2.249833783 _1_ AGT  --- 24 tcp 1040 [0 0 0 0] ------- [1:0 3:0 32 0] [15 0] 0 0
r 2.249833783 _1_ RTR  --- 24 tcp 1040 [0 0 0 0] ------- [1:0 3:0 32 0] [15 0] 0 0
s 2.249833783 _1_ AGT  --- 25 tcp 1040 [0 0 0 0] ------- [1:0 3:0 32 0] [16 0] 0 0
r 2.249833783 _1_ RTR  --- 25 tcp 1040 [0 0 0 0] ------- [1:0 3:0 32 0] [16 0] 0 0
s 2.249833783 _1_ RTR  --- 24 tcp 1040 [0 0 0 0] ------- [1:0 3:0 30 8] [15 0] 0 0
s 2.249833783 _1_ RTR  --- 25 tcp 1040 [0 0 0 0] ------- [1:0 3:0 30 8] [16 0] 0 0
r 2.259879726 _8_ RTR  --- 21 tcp 1040 [13a 8 1 800] ------- [1:0 3:0 30 8] [12 0] 1 0
f 2.259879726 _8_ RTR  --- 21 tcp 1040 [13a 8 1 800] ------- [1:0 3:0 29 3] [12 0] 1 0
r 2.270006318 _8_ RTR  --- 22 tcp 1040 [13a 8 1 800] ------- [1:0 3:0 30 8] [13 0] 1 0
f 2.270006318 _8_ RTR  --- 22 tcp 1040 [13a 8 1 800] ------- [1:0 3:0 29 3] [13 0] 1 0
r 2.271852261 _1_ AGT  --- 19 ack 40 [13a 1 8 800] ------- [3:0 1:0 29 1] [8 0] 2 0
s 2.271852261 _1_ AGT  --- 26 tcp 1040 [0 0 0 0] ------- [1:0 3:0 32 0] [17 0] 0 0
r 2.271852261 _1_ RTR  --- 26 tcp 1040 [0 0 0 0] ------- [1:0 3:0 32 0] [17 0] 0 0
s 2.271852261 _1_ AGT  --- 27 tcp 1040 [0 0 0 0] ------- [1:0 3:0 32 0] [18 0] 0 0
r 2.271852261 _1_ RTR  --- 27 tcp 1040 [0 0 0 0] ------- [1:0 3:0 32 0] [18 0] 0 0
s 2.271852261 _1_ RTR  --- 26 tcp 1040 [0 0 0 0] ------- [1:0 3:0 30 8] [17 0] 0 0
s 2.271852261 _1_ RTR  --- 27 tcp 1040 [0 0 0 0] ------- [1:0 3:0 30 8] [18 0] 0 0
r 2.281958205 _8_ RTR  --- 23 tcp 1040 [13a 8 1 800] ------- [1:0 3:0 30 8] [14 0] 1 0
f 2.281958205 _8_ RTR  --- 23 tcp 1040 [13a 8 1 800] ------- [1:0 3:0 29 3] [14 0] 1 0
r 2.291804236 _3_ AGT  --- 14 tcp 1040 [13a 3 8 800] ------- [1:0 3:0 29 3] [9 0] 2 0
s 2.291804236 _3_ AGT  --- 28 ack 40 [0 0 0 0] ------- [3:0 1:0 32 0] [9 0] 0 0
r 2.291804236 _3_ RTR  --- 28 ack 40 [0 0 0 0] ------- [3:0 1:0 32 0] [9 0] 0 0
s 2.291804236 _3_ RTR  --- 28 ack 40 [0 0 0 0] ------- [3:0 1:0 30 8] [9 0] 0 0
r 2.293670266 _8_ RTR  --- 28 ack 40 [13a 8 3 800] ------- [3:0 1:0 30 8] [9 0] 1 0
f 2.293670266 _8_ RTR  --- 28 ack 40 [13a 8 3 800] ------- [3:0 1:0 29 1] [9 0] 1 0
r 2.303866642 _8_ RTR  --- 24 tcp 1040 [13a 8 1 800] ------- [1:0 3:0 30 8] [15 0] 1 0
f 2.303866642 _8_ RTR  --- 24 tcp 1040 [13a 8 1 800] ------- [1:0 3:0 29 3] [15 0] 1 0
r 2.315439968 _3_ AGT  --- 15 tcp 1040 [13a 3 8 800] ------- [1:0 3:0 29 3] [10 0] 2 0
s 2.315439968 _3_ AGT  --- 29 ack 40 [0 0 0 0] ------- [3:0 1:0 32 0] [10 0] 0 0
r 2.315439968 _3_ RTR  --- 29 ack 40 [0 0 0 0] ------- [3:0 1:0 32 0] [10 0] 0 0
s 2.315439968 _3_ RTR  --- 29 ack 40 [0 0 0 0] ------- [3:0 1:0 30 8] [10 0] 0 0
r 2.325386676 _3_ AGT  --- 20 tcp 1040 [13a 3 8 800] ------- [1:0 3:0 29 3] [11 0] 2 0
s 2.325386676 _3_ AGT  --- 30 ack 40 [0 0 0 0] ------- [3:0 1:0 32 0] [11 0] 0 0
r 2.325386676 _3_ RTR  --- 30 ack 40 [0 0 0 0] ------- [3:0 1:0 32 0] [11 0] 0 0
s 2.325386676 _3_ RTR  --- 30 ack 40 [0 0 0 0] ------- [3:0 1:0 30 8] [11 0] 0 0
r 2.335373384 _3_ AGT  --- 21 tcp 1040 [13a 3 8 800] ------- [1:0 3:0 29 3] [12 0] 2 0
s 2.335373384 _3_ AGT  --- 31 ack 40 [0 0 0 0] ------- [3:0 1:0 32 0] [12 0] 0 0
r 2.335373384 _3_ RTR  --- 31 ack 40 [0 0 0 0] ------- [3:0 1:0 32 0] [12 0] 0 0
s 2.335373384 _3_ RTR  --- 31 ack 40 [0 0 0 0] ------- [3:0 1:0 30 8] [12 0] 0 0
r 2.337319414 _8_ RTR  --- 29 ack 40 [13a 8 3 800] ------- [3:0 1:0 30 8] [10 0] 1 0
f 2.337319414 _8_ RTR  --- 29 ack 40 [13a 8 3 800] ------- [3:0 1:0 29 1] [10 0] 1 0
r 2.339146122 _8_ RTR  --- 30 ack 40 [13a 8 3 800] ------- [3:0 1:0 30 8] [11 0] 1 0
f 2.339146122 _8_ RTR  --- 30 ack 40 [13a 8 3 800] ------- [3:0 1:0 29 1] [11 0] 1 0
r 2.349092153 _3_ AGT  --- 22 tcp 1040 [13a 3 8 800] ------- [1:0 3:0 29 3] [13 0] 2 0
s 2.349092153 _3_ AGT  --- 32 ack 40 [0 0 0 0] ------- [3:0 1:0 32 0] [13 0] 0 0
r 2.349092153 _3_ RTR  --- 32 ack 40 [0 0 0 0] ------- [3:0 1:0 32 0] [13 0] 0 0
s 2.349092153 _3_ RTR  --- 32 ack 40 [0 0 0 0] ------- [3:0 1:0 30 8] [13 0] 0 0
r 2.350958183 _8_ RTR  --- 31 ack 40 [13a 8 3 800] ------- [3:0 1:0 30 8] [12 0] 1 0
f 2.350958183 _8_ RTR  --- 31 ack 40 [13a 8 3 800] ------- [3:0 1:0 29 1] [12 0] 1 0
r 2.361094559 _8_ RTR  --- 25 tcp 1040 [13a 8 1 800] ------- [1:0 3:0 30 8] [16 0] 1 0
f 2.361094559 _8_ RTR  --- 25 tcp 1040 [13a 8 1 800] ------- [1:0 3:0 29 3] [16 0] 1 0
r 2.370940590 _3_ AGT  --- 23 tcp 1040 [13a 3 8 800] ------- [1:0 3:0 29 3] [14 0] 2 0
s 2.370940590 _3_ AGT  --- 33 ack 40 [0 0 0 0] ------- [3:0 1:0 32 0] [14 0] 0 0
r 2.370940590 _3_ RTR  --- 33 ack 40 [0 0 0 0] ------- [3:0 1:0 32 0] [14 0] 0 0
s 2.370940590 _3_ RTR  --- 33 ack 40 [0 0 0 0] ------- [3:0 1:0 30 8] [14 0] 0 0
r 2.372786620 _8_ RTR  --- 32 ack 40 [13a 8 3 800] ------- [3:0 1:0 30 8] [13 0] 1 0
f 2.372786620 _8_ RTR  --- 32 ack 40 [13a 8 3 800] ------- [3:0 1:0 29 1] [13 0] 1 0
r 2.374933328 _8_ RTR  --- 33 ack 40 [13a 8 3 800] ------- [3:0 1:0 30 8] [14 0] 1 0
f 2.374933328 _8_ RTR  --- 33 ack 40 [13a 8 3 800] ------- [3:0 1:0 29 1] [14 0] 1 0
r 2.376919272 _1_ AGT  --- 28 ack 40 [13a 1 8 800] ------- [3:0 1:0 29 1] [9 0] 2 0
s 2.376919272 _1_ AGT  --- 34 tcp 1040 [0 0 0 0] ------- [1:0 3:0 32 0] [19 0] 0 0
r 2.376919272 _1_ RTR  --- 34 tcp 1040 [0 0 0 0] ------- [1:0 3:0 32 0] [19 0] 0 0
s 2.376919272 _1_ AGT  --- 35 tcp 1040 [0 0 0 0] ------- [1:0 3:0 32 0] [20 0] 0 0
r 2.376919272 _1_ RTR  --- 35 tcp 1040 [0 0 0 0] ------- [1:0 3:0 32 0] [20 0] 0 0
s 2.376919272 _1_ RTR  --- 34 tcp 1040 [0 0 0 0] ------- [1:0 3:0 30 8] [19 0] 0 0
s 2.376919272 _1_ RTR  --- 35 tcp 1040 [0 0 0 0] ------- [1:0 3:0 30 8] [20 0] 0 0
r 2.386765950 _3_ AGT  --- 24 tcp 1040 [13a 3 8 800] ------- [1:0 3:0 29 3] [15 0] 2 0
s 2.386765950 _3_ AGT  --- 36 ack 40 [0 0 0 0] ------- [3:0 1:0 32 0] [15 0] 0 0
r 2.386765950 _3_ RTR  --- 36 ack 40 [0 0 0 0] ------- [3:0 1:0 32 0] [15 0] 0 0
s 2.386765950 _3_ RTR  --- 36 ack 40 [0 0 0 0] ------- [3:0 1:0 30 8] [15 0] 0 0
r 2.388692571 _1_ AGT  --- 29 ack 40 [13a 1 8 800] ------- [3:0 1:0 29 1] [10 0] 2 0
s 2.388692571 _1_ AGT  --- 37 tcp 1040 [0 0 0 0] ------- [1:0 3:0 32 0] [21 0] 0 0
r 2.388692571 _1_ RTR  --- 37 tcp 1040 [0 0 0 0] ------- [1:0 3:0 32 0] [21 0] 0 0
s 2.388692571 _1_ AGT  --- 38 tcp 1040 [0 0 0 0] ------- [1:0 3:0 32 0] [22 0] 0 0
r 2.388692571 _1_ RTR  --- 38 tcp 1040 [0 0 0 0] ------- [1:0 3:0 32 0] [22 0] 0 0
s 2.388692571 _1_ RTR  --- 37 tcp 1040 [0 0 0 0] ------- [1:0 3:0 30 8] [21 0] 0 0
s 2.388692571 _1_ RTR  --- 38 tcp 1040 [0 0 0 0] ------- [1:0 3:0 30 8] [22 0] 0 0
r 2.390519162 _1_ AGT  --- 30 ack 40 [13a 1 8 800] ------- [3:0 1:0 29 1] [11 0] 2 0
s 2.390519162 _1_ AGT  --- 39 tcp 1040 [0 0 0 0] ------- [1:0 3:0 32 0] [23 0] 0 0
r 2.390519162 _1_ RTR  --- 39 tcp 1040 [0 0 0 0] ------- [1:0 3:0 32 0] [23 0] 0 0
s 2.390519162 _1_ AGT  --- 40 tcp 1040 [0 0 0 0] ------- [1:0 3:0 32 0] [24 0] 0 0
r 2.390519162 _1_ RTR  --- 40 tcp 1040 [0 0 0 0] ------- [1:0 3:0 32 0] [24 0] 0 0
s 2.390519162 _1_ RTR  --- 39 tcp 1040 [0 0 0 0] ------- [1:0 3:0 30 8] [23 0] 0 0
s 2.390519162 _1_ RTR  --- 40 tcp 1040 [0 0 0 0] ------- [1:0 3:0 30 8] [24 0] 0 0
r 2.400365106 _8_ RTR  --- 26 tcp 1040 [13a 8 1 800] ------- [1:0 3:0 30 8] [17 0] 1 0
f 2.400365106 _8_ RTR  --- 26 tcp 1040 [13a 8 1 800] ------- [1:0 3:0 29 3] [17 0] 1 0
r 2.402231050 _1_ AGT  --- 31 ack 40 [13a 1 8 800] ------- [3:0 1:0 29 1] [12 0] 2 0
s 2.402231050 _1_ AGT  --- 41 tcp 1040 [0 0 0 0] ------- [1:0 3:0 32 0] [25 0] 0 0
r 2.402231050 _1_ RTR  --- 41 tcp 1040 [0 0 0 0] ------- [1:0 3:0 32 0] [25 0] 0 0
s 2.402231050 _1_ AGT  --- 42 tcp 1040 [0 0 0 0] ------- [1:0 3:0 32 0] [26 0] 0 0
r 2.402231050 _1_ RTR  --- 42 tcp 1040 [0 0 0 0] ------- [1:0 3:0 32 0] [26 0] 0 0
s 2.402231050 _1_ RTR  --- 41 tcp 1040 [0 0 0 0] ------- [1:0 3:0 30 8] [25 0] 0 0
s 2.402231050 _1_ RTR  --- 42 tcp 1040 [0 0 0 0] ------- [1:0 3:0 30 8] [26 0] 0 0
r 2.412536993 _8_ RTR  --- 27 tcp 1040 [13a 8 1 800] ------- [1:0 3:0 30 8] [18 0] 1 0
f 2.412536993 _8_ RTR  --- 27 tcp 1040 [13a 8 1 800] ------- [1:0 3:0 29 3] [18 0] 1 0
r 2.414473485 _8_ RTR  --- 36 ack 40 [13a 8 3 800] ------- [3:0 1:0 30 8] [15 0] 1 0
f 2.414473485 _8_ RTR  --- 36 ack 40 [13a 8 3 800] ------- [3:0 1:0 29 1] [15 0] 1 0
r 2.424319516 _3_ AGT  --- 25 tcp 1040 [13a 3 8 800] ------- [1:0 3:0 29 3] [16 0] 2 0
s 2.424319516 _3_ AGT  --- 43 ack 40 [0 0 0 0] ------- [3:0 1:0 32 0] [16 0] 0 0
r 2.424319516 _3_ RTR  --- 43 ack 40 [0 0 0 0] ------- [3:0 1:0 32 0] [16 0] 0 0
s 2.424319516 _3_ RTR  --- 43 ack 40 [0 0 0 0] ------- [3:0 1:0 30 8] [16 0] 0 0
r 2.426165546 _8_ RTR  --- 43 ack 40 [13a 8 3 800] ------- [3:0 1:0 30 8] [16 0] 1 0
f 2.426165546 _8_ RTR  --- 43 ack 40 [13a 8 3 800] ------- [3:0 1:0 29 1] [16 0] 1 0
r 2.428031490 _1_ AGT  --- 32 ack 40 [13a 1 8 800] ------- [3:0 1:0 29 1] [13 0] 2 0
s 2.428031490 _1_ AGT  --- 44 tcp 1040 [0 0 0 0] ------- [1:0 3:0 32 0] [27 0] 0 0
r 2.428031490 _1_ RTR  --- 44 tcp 1040 [0 0 0 0] ------- [1:0 3:0 32 0] [27 0] 0 0
s 2.428031490 _1_ AGT  --- 45 tcp 1040 [0 0 0 0] ------- [1:0 3:0 32 0] [28 0] 0 0
r 2.428031490 _1_ RTR  --- 45 tcp 1040 [0 0 0 0] ------- [1:0 3:0 32 0] [28 0] 0 0
s 2.428031490 _1_ RTR  --- 44 tcp 1040 [0 0 0 0] ------- [1:0 3:0 30 8] [27 0] 0 0
s 2.428031490 _1_ RTR  --- 45 tcp 1040 [0 0 0 0] ------- [1:0 3:0 30 8] [28 0] 0 0
r 2.429878082 _1_ AGT  --- 33 ack 40 [13a 1 8 800] ------- [3:0 1:0 29 1] [14 0] 2 0
s 2.429878082 _1_ AGT  --- 46 tcp 1040 [0 0 0 0] ------- [1:0 3:0 32 0] [29 0] 0 0
r 2.429878082 _1_ RTR  --- 46 tcp 1040 [0 0 0 0] ------- [1:0 3:0 32 0] [29 0] 0 0
s 2.429878082 _1_ AGT  --- 47 tcp 1040 [0 0 0 0] ------- [1:0 3:0 32 0] [30 0] 0 0
r 2.429878082 _1_ RTR  --- 47 tcp 1040 [0 0 0 0] ------- [1:0 3:0 32 0] [30 0] 0 0
s 2.429878082 _1_ RTR  --- 46 tcp 1040 [0 0 0 0] ------- [1:0 3:0 30 8] [29 0] 0 0
s 2.429878082 _1_ RTR  --- 47 tcp 1040 [0 0 0 0] ------- [1:0 3:0 30 8] [30 0] 0 0
r 2.439724760 _3_ AGT  --- 26 tcp 1040 [13a 3 8 800] ------- [1:0 3:0 29 3] [17 0] 2 0
s 2.439724760 _3_ AGT  --- 48 ack 40 [0 0 0 0] ------- [3:0 1:0 32 0] [17 0] 0 0
r 2.439724760 _3_ RTR  --- 48 ack 40 [0 0 0 0] ------- [3:0 1:0 32 0] [17 0] 0 0
s 2.439724760 _3_ RTR  --- 48 ack 40 [0 0 0 0] ------- [3:0 1:0 30 8] [17 0] 0 0
r 2.441770791 _8_ RTR  --- 48 ack 40 [13a 8 3 800] ------- [3:0 1:0 30 8] [17 0] 1 0
f 2.441770791 _8_ RTR  --- 48 ack 40 [13a 8 3 800] ------- [3:0 1:0 29 1] [17 0] 1 0
r 2.451756822 _3_ AGT  --- 27 tcp 1040 [13a 3 8 800] ------- [1:0 3:0 29 3] [18 0] 2 0
s 2.451756822 _3_ AGT  --- 49 ack 40 [0 0 0 0] ------- [3:0 1:0 32 0] [18 0] 0 0
r 2.451756822 _3_ RTR  --- 49 ack 40 [0 0 0 0] ------- [3:0 1:0 32 0] [18 0] 0 0
s 2.451756822 _3_ RTR  --- 49 ack 40 [0 0 0 0] ------- [3:0 1:0 30 8] [18 0] 0 0
r 2.453862852 _8_ RTR  --- 49 ack 40 [13a 8 3 800] ------- [3:0 1:0 30 8] [18 0] 1 0
f 2.453862852 _8_ RTR  --- 49 ack 40 [13a 8 3 800] ------- [3:0 1:0 29 1] [18 0] 1 0
r 2.455788796 _1_ AGT  --- 36 ack 40 [13a 1 8 800] ------- [3:0 1:0 29 1] [15 0] 2 0
s 2.455788796 _1_ AGT  --- 50 tcp 1040 [0 0 0 0] ------- [1:0 3:0 32 0] [31 0] 0 0
r 2.455788796 _1_ RTR  --- 50 tcp 1040 [0 0 0 0] ------- [1:0 3:0 32 0] [31 0] 0 0
s 2.455788796 _1_ AGT  --- 51 tcp 1040 [0 0 0 0] ------- [1:0 3:0 32 0] [32 0] 0 0
r 2.455788796 _1_ RTR  --- 51 tcp 1040 [0 0 0 0] ------- [1:0 3:0 32 0] [32 0] 0 0