n -t * -s 0  -x 131.67298568024904 -y 22.296262356590603 -Z 0 -z 20  -v circle -c black
n -t * -s 1  -x 416.60178402280519 -y 260.94725702933374 -Z 0 -z 20  -v circle -c black
n -t * -s 2  -x 175.68611501515196 -y 205.22804772724771 -Z 0 -z 20  -v circle -c black
n -t * -s 3  -x 84.747689815586298 -y 283.53818444699897 -Z 0 -z 20  -v circle -c black
n -t * -s 4  -x 282.8325008893537 -y 52.673957893938741 -Z 0 -z 20  -v circle -c black
n -t * -s 5  -x 114.01290428545927 -y 171.90586057114686 -Z 0 -z 20  -v circle -c black
n -t * -s 6  -x 27.248274081967896 -y 369.39399650757855 -Z 0 -z 20  -v circle -c black
n -t * -s 7  -x 6.1241285903957339 -y 342.58337502488092 -Z 0 -z 20  -v circle -c black
n -t * -s 8  -x 248.48005396708851 -y 163.41361988494808 -Z 0 -z 20  -v circle -c black
n -t * -s 9  -x 115.8867579027483 -y 166.99205719260129 -Z 0 -z 20  -v circle -c black
V -t * -v 1.0a5 -a 0
W -t * -x 500 -y 400
A -t * -n 1 -p 0 -o 0x7fffffff -c 30 -a 1
A -t * -h 1 -m 1073741823 -s 0
n -t 0 -s 0 -S COLOR -c blue -o blue -i blue -I blue
n -t 0 -s 1 -S COLOR -c blue -o blue -i blue -I blue
n -t 0 -s 2 -S COLOR -c blue -o blue -i blue -I blue
n -t 1 -s 3 -S COLOR -c black -o cyan -i black -I cyan
n -t 1 -s 4 -S COLOR -c black -o cyan -i black -I cyan
n -t 1 -s 5 -S COLOR -c black -o red -i black -I red
n -t 2 -s 5 -S COLOR -c red -o black -i red -I black
n -t 2 -s 6 -S COLOR -c red -o red -i red -I red
n -t 2 -s 7 -S COLOR -c red -o red -i red -I red
+ -t 2.000000000 -s 1 -d -1 -p tcp -e 40 -c 2 -a 0 -i 0 -k AGT 
- -t 2.000000000 -s 1 -d -1 -p tcp -e 40 -c 2 -a 0 -i 0 -k AGT
h -t 2.000000000 -s 1 -d -1 -p tcp -e 40 -c 2 -a 0 -i 0 -k AGT
+ -t 2.000000000 -s 1 -d -1 -p AODV -e 48 -c 2 -a 0 -i 0 -k RTR 
- -t 2.000000000 -s 1 -d -1 -p AODV -e 48 -c 2 -a 0 -i 0 -k RTR
h -t 2.000000000 -s 1 -d -1 -p AODV -e 48 -c 2 -a 0 -i 0 -k RTR
r -t 2.001508648 -s 8 -d -1 -p AODV -e 48 -c 2 -a 0 -i 0 -k RTR
r -t 2.001508824 -s 2 -d -1 -p AODV -e 48 -c 2 -a 0 -i 0 -k RTR
r -t 2.001508825 -s 4 -d -1 -p AODV -e 48 -c 2 -a 0 -i 0 -k RTR
+ -t 2.004638443 -s 4 -d -1 -p AODV -e 48 -c 2 -a 0 -i 0 -k RTR 
- -t 2.004638443 -s 4 -d -1 -p AODV -e 48 -c 2 -a 0 -i 0 -k RTR
h -t 2.004638443 -s 4 -d -1 -p AODV -e 48 -c 2 -a 0 -i 0 -k RTR
r -t 2.005786829 -s 8 -d -1 -p AODV -e 48 -c 2 -a 0 -i 0 -k RTR
r -t 2.005786957 -s 0 -d -1 -p AODV -e 48 -c 2 -a 0 -i 0 -k RTR
r -t 2.005787064 -s 2 -d -1 -p AODV -e 48 -c 2 -a 0 -i 0 -k RTR
r -t 2.005787117 -s 9 -d -1 -p AODV -e 48 -c 2 -a 0 -i 0 -k RTR
r -t 2.005787132 -s 5 -d -1 -p AODV -e 48 -c 2 -a 0 -i 0 -k RTR
r -t 2.005787268 -s 1 -d -1 -p AODV -e 48 -c 2 -a 0 -i 0 -k RTR
+ -t 2.005920382 -s 8 -d -1 -p AODV -e 48 -c 2 -a 0 -i 0 -k RTR 
- -t 2.005920382 -s 8 -d -1 -p AODV -e 48 -c 2 -a 0 -i 0 -k RTR
h -t 2.005920382 -s 8 -d -1 -p AODV -e 48 -c 2 -a 0 -i 0 -k RTR
r -t 2.006908662 -s 2 -d -1 -p AODV -e 48 -c 2 -a 0 -i 0 -k RTR
r -t 2.006908768 -s 4 -d -1 -p AODV -e 48 -c 2 -a 0 -i 0 -k RTR
r -t 2.006908824 -s 9 -d -1 -p AODV -e 48 -c 2 -a 0 -i 0 -k RTR
r -t 2.006908831 -s 5 -d -1 -p AODV -e 48 -c 2 -a 0 -i 0 -k RTR
r -t 2.006908992 -s 0 -d -1 -p AODV -e 48 -c 2 -a 0 -i 0 -k RTR
r -t 2.006909030 -s 1 -d -1 -p AODV -e 48 -c 2 -a 0 -i 0 -k RTR
r -t 2.006909059 -s 3 -d -1 -p AODV -e 48 -c 2 -a 0 -i 0 -k RTR
+ -t 2.006909059 -s 3 -d 8 -p AODV -e 44 -c 2 -a 0 -i 0 -k RTR 
- -t 2.006909059 -s 3 -d 8 -p AODV -e 44 -c 2 -a 0 -i 0 -k RTR
h -t 2.006909059 -s 3 -d 8 -p AODV -e 44 -c 2 -a 0 -i 0 -k RTR
+ -t 2.008877908 -s 9 -d -1 -p AODV -e 48 -c 2 -a 0 -i 0 -k RTR 
- -t 2.008877908 -s 9 -d -1 -p AODV -e 48 -c 2 -a 0 -i 0 -k RTR
h -t 2.008877908 -s 9 -d -1 -p AODV -e 48 -c 2 -a 0 -i 0 -k RTR
+ -t 2.009500379 -s 2 -d -1 -p AODV -e 48 -c 2 -a 0 -i 0 -k RTR 
- -t 2.009500379 -s 2 -d -1 -p AODV -e 48 -c 2 -a 0 -i 0 -k RTR
h -t 2.009500379 -s 2 -d -1 -p AODV -e 48 -c 2 -a 0 -i 0 -k RTR
r -t 2.010986400 -s 5 -d -1 -p AODV -e 48 -c 2 -a 0 -i 0 -k RTR
r -t 2.010986403 -s 9 -d -1 -p AODV -e 48 -c 2 -a 0 -i 0 -k RTR
r -t 2.010986446 -s 8 -d -1 -p AODV -e 48 -c 2 -a 0 -i 0 -k RTR
r -t 2.010986566 -s 3 -d -1 -p AODV -e 48 -c 2 -a 0 -i 0 -k RTR
r -t 2.010986788 -s 4 -d -1 -p AODV -e 48 -c 2 -a 0 -i 0 -k RTR
r -t 2.010986793 -s 0 -d -1 -p AODV -e 48 -c 2 -a 0 -i 0 -k RTR
r -t 2.010986894 -s 7 -d -1 -p AODV -e 48 -c 2 -a 0 -i 0 -k RTR
r -t 2.010986904 -s 6 -d -1 -p AODV -e 48 -c 2 -a 0 -i 0 -k RTR
r -t 2.010986991 -s 1 -d -1 -p AODV -e 48 -c 2 -a 0 -i 0 -k RTR
r -t 2.011964420 -s 5 -d -1 -p AODV -e 48 -c 2 -a 0 -i 0 -k RTR
r -t 2.011964639 -s 2 -d -1 -p AODV -e 48 -c 2 -a 0 -i 0 -k RTR
r -t 2.011964805 -s 3 -d -1 -p AODV -e 48 -c 2 -a 0 -i 0 -k RTR
r -t 2.011964845 -s 8 -d -1 -p AODV -e 48 -c 2 -a 0 -i 0 -k RTR
r -t 2.011964888 -s 0 -d -1 -p AODV -e 48 -c 2 -a 0 -i 0 -k RTR
r -t 2.011965077 -s 4 -d -1 -p AODV -e 48 -c 2 -a 0 -i 0 -k RTR
r -t 2.011965093 -s 7 -d -1 -p AODV -e 48 -c 2 -a 0 -i 0 -k RTR
r -t 2.011965139 -s 6 -d -1 -p AODV -e 48 -c 2 -a 0 -i 0 -k RTR
+ -t 2.012175608 -s 0 -d -1 -p AODV -e 48 -c 2 -a 0 -i 0 -k RTR 
- -t 2.012175608 -s 0 -d -1 -p AODV -e 48 -c 2 -a 0 -i 0 -k RTR
h -t 2.012175608 -s 0 -d -1 -p AODV -e 48 -c 2 -a 0 -i 0 -k RTR
+ -t 2.013567784 -s 6 -d -1 -p AODV -e 48 -c 2 -a 0 -i 0 -k RTR 
- -t 2.013567784 -s 6 -d -1 -p AODV -e 48 -c 2 -a 0 -i 0 -k RTR
h -t 2.013567784 -s 6 -d -1 -p AODV -e 48 -c 2 -a 0 -i 0 -k RTR
+ -t 2.013748836 -s 8 -d 1 -p AODV -e 44 -c 2 -a 0 -i 0 -k RTR 
- -t 2.013748836 -s 8 -d 1 -p AODV -e 44 -c 2 -a 0 -i 0 -k RTR
h -t 2.013748836 -s 8 -d 1 -p AODV -e 44 -c 2 -a 0 -i 0 -k RTR
+ -t 2.014150367 -s 5 -d -1 -p AODV -e 48 -c 2 -a 0 -i 0 -k RTR 
- -t 2.014150367 -s 5 -d -1 -p AODV -e 48 -c 2 -a 0 -i 0 -k RTR
h -t 2.014150367 -s 5 -d -1 -p AODV -e 48 -c 2 -a 0 -i 0 -k RTR
+ -t 2.014474304 -s 7 -d -1 -p AODV -e 48 -c 2 -a 0 -i 0 -k RTR 
- -t 2.014474304 -s 7 -d -1 -p AODV -e 48 -c 2 -a 0 -i 0 -k RTR
h -t 2.014474304 -s 7 -d -1 -p AODV -e 48 -c 2 -a 0 -i 0 -k RTR
r -t 2.017785503 -s 9 -d -1 -p AODV -e 48 -c 2 -a 0 -i 0 -k RTR
r -t 2.017785520 -s 5 -d -1 -p AODV -e 48 -c 2 -a 0 -i 0 -k RTR
r -t 2.017785532 -s 4 -d -1 -p AODV -e 48 -c 2 -a 0 -i 0 -k RTR
r -t 2.017785629 -s 8 -d -1 -p AODV -e 48 -c 2 -a 0 -i 0 -k RTR
r -t 2.017785645 -s 2 -d -1 -p AODV -e 48 -c 2 -a 0 -i 0 -k RTR
+ -t 2.019529573 -s 1 -d 8 -p tcp -e 40 -c 2 -a 0 -i 0 -k RTR 
- -t 2.019529573 -s 1 -d 8 -p tcp -e 40 -c 2 -a 0 -i 0 -k RTR
h -t 2.019529573 -s 1 -d 8 -p tcp -e 40 -c 2 -a 0 -i 0 -k RTR
+ -t 2.021535516 -s 8 -d 3 -p tcp -e 40 -c 2 -a 0 -i 0 -k RTR 
- -t 2.021535516 -s 8 -d 3 -p tcp -e 40 -c 2 -a 0 -i 0 -k RTR
h -t 2.021535516 -s 8 -d 3 -p tcp -e 40 -c 2 -a 0 -i 0 -k RTR
r -t 2.023441547 -s 3 -d 3 -p tcp -e 40 -c 2 -a 0 -i 0 -k AGT
+ -t 2.023441547 -s 3 -d -1 -p ack -e 40 -c 2 -a 0 -i 1 -k AGT 
- -t 2.023441547 -s 3 -d -1 -p ack -e 40 -c 2 -a 0 -i 1 -k AGT
h -t 2.023441547 -s 3 -d -1 -p ack -e 40 -c 2 -a 0 -i 1 -k AGT
+ -t 2.023441547 -s 3 -d 8 -p ack -e 40 -c 2 -a 0 -i 1 -k RTR 
- -t 2.023441547 -s 3 -d 8 -p ack -e 40 -c 2 -a 0 -i 1 -k RTR
h -t 2.023441547 -s 3 -d 8 -p ack -e 40 -c 2 -a 0 -i 1 -k RTR
r -t 2.024673949 -s 9 -d -1 -p AODV -e 48 -c 2 -a 0 -i 0 -k RTR
r -t 2.024674165 -s 2 -d -1 -p AODV -e 48 -c 2 -a 0 -i 0 -k RTR
r -t 2.024674316 -s 3 -d -1 -p AODV -e 48 -c 2 -a 0 -i 0 -k RTR
r -t 2.024674381 -s 8 -d -1 -p AODV -e 48 -c 2 -a 0 -i 0 -k RTR
r -t 2.024674434 -s 0 -d -1 -p AODV -e 48 -c 2 -a 0 -i 0 -k RTR
r -t 2.024674605 -s 7 -d -1 -p AODV -e 48 -c 2 -a 0 -i 0 -k RTR
r -t 2.024674621 -s 4 -d -1 -p AODV -e 48 -c 2 -a 0 -i 0 -k RTR
r -t 2.024674651 -s 6 -d -1 -p AODV -e 48 -c 2 -a 0 -i 0 -k RTR
+ -t 2.026426347 -s 8 -d 1 -p ack -e 40 -c 2 -a 0 -i 1 -k RTR 
- -t 2.026426347 -s 8 -d 1 -p ack -e 40 -c 2 -a 0 -i 1 -k RTR
h -t 2.026426347 -s 8 -d 1 -p ack -e 40 -c 2 -a 0 -i 1 -k RTR
r -t 2.028772291 -s 1 -d 1 -p ack -e 40 -c 2 -a 0 -i 1 -k AGT
+ -t 2.028772291 -s 1 -d -1 -p tcp -e 1040 -c 2 -a 0 -i 2 -k AGT 
- -t 2.028772291 -s 1 -d -1 -p tcp -e 1040 -c 2 -a 0 -i 2 -k AGT
h -t 2.028772291 -s 1 -d -1 -p tcp -e 1040 -c 2 -a 0 -i 2 -k AGT
+ -t 2.028772291 -s 1 -d -1 -p tcp -e 1040 -c 2 -a 0 -i 3 -k AGT 
- -t 2.028772291 -s 1 -d -1 -p tcp -e 1040 -c 2 -a 0 -i 3 -k AGT
h -t 2.028772291 -s 1 -d -1 -p tcp -e 1040 -c 2 -a 0 -i 3 -k AGT
+ -t 2.028772291 -s 1 -d 8 -p tcp -e 1040 -c 2 -a 0 -i 2 -k RTR 
- -t 2.028772291 -s 1 -d 8 -p tcp -e 1040 -c 2 -a 0 -i 2 -k RTR
h -t 2.028772291 -s 1 -d 8 -p tcp -e 1040 -c 2 -a 0 -i 2 -k RTR
+ -t 2.028772291 -s 1 -d 8 -p tcp -e 1040 -c 2 -a 0 -i 3 -k RTR 
- -t 2.028772291 -s 1 -d 8 -p tcp -e 1040 -c 2 -a 0 -i 3 -k RTR
h -t 2.028772291 -s 1 -d 8 -p tcp -e 1040 -c 2 -a 0 -i 3 -k RTR
+ -t 2.038798234 -s 8 -d 3 -p tcp -e 1040 -c 2 -a 0 -i 2 -k RTR 
- -t 2.038798234 -s 8 -d 3 -p tcp -e 1040 -c 2 -a 0 -i 2 -k RTR
h -t 2.038798234 -s 8 -d 3 -p tcp -e 1040 -c 2 -a 0 -i 2 -k RTR
+ -t 2.048684826 -s 8 -d 3 -p tcp -e 1040 -c 2 -a 0 -i 3 -k RTR 
- -t 2.048684826 -s 8 -d 3 -p tcp -e 1040 -c 2 -a 0 -i 3 -k RTR
h -t 2.048684826 -s 8 -d 3 -p tcp -e 1040 -c 2 -a 0 -i 3 -k RTR
r -t 2.058850857 -s 3 -d 3 -p tcp -e 1040 -c 2 -a 0 -i 2 -k AGT
+ -t 2.058850857 -s 3 -d -1 -p ack -e 40 -c 2 -a 0 -i 4 -k AGT 
- -t 2.058850857 -s 3 -d -1 -p ack -e 40 -c 2 -a 0 -i 4 -k AGT
h -t 2.058850857 -s 3 -d -1 -p ack -e 40 -c 2 -a 0 -i 4 -k AGT
+ -t 2.058850857 -s 3 -d 8 -p ack -e 40 -c 2 -a 0 -i 4 -k RTR 
- -t 2.058850857 -s 3 -d 8 -p ack -e 40 -c 2 -a 0 -i 4 -k RTR
h -t 2.058850857 -s 3 -d 8 -p ack -e 40 -c 2 -a 0 -i 4 -k RTR
r -t 2.060173301 -s 7 -d -1 -p AODV -e 48 -c 2 -a 0 -i 0 -k RTR
r -t 2.060173532 -s 3 -d -1 -p AODV -e 48 -c 2 -a 0 -i 0 -k RTR
r -t 2.060173906 -s 5 -d -1 -p AODV -e 48 -c 2 -a 0 -i 0 -k RTR
r -t 2.060173924 -s 9 -d -1 -p AODV -e 48 -c 2 -a 0 -i 0 -k RTR
r -t 2.060173925 -s 2 -d -1 -p AODV -e 48 -c 2 -a 0 -i 0 -k RTR
r -t 2.061171415 -s 6 -d -1 -p AODV -e 48 -c 2 -a 0 -i 0 -k RTR
r -t 2.061171629 -s 3 -d -1 -p AODV -e 48 -c 2 -a 0 -i 0 -k RTR
r -t 2.061171974 -s 5 -d -1 -p AODV -e 48 -c 2 -a 0 -i 0 -k RTR
r -t 2.061171991 -s 9 -d -1 -p AODV -e 48 -c 2 -a 0 -i 0 -k RTR
r -t 2.061172028 -s 2 -d -1 -p AODV -e 48 -c 2 -a 0 -i 0 -k RTR
+ -t 2.062823659 -s 8 -d 1 -p ack -e 40 -c 2 -a 0 -i 4 -k RTR 
- -t 2.062823659 -s 8 -d 1 -p ack -e 40 -c 2 -a 0 -i 4 -k RTR
h -t 2.062823659 -s 8 -d 1 -p ack -e 40 -c 2 -a 0 -i 4 -k RTR
r -t 2.073049690 -s 3 -d 3 -p tcp -e 1040 -c 2 -a 0 -i 3 -k AGT
+ -t 2.073049690 -s 3 -d -1 -p ack -e 40 -c 2 -a 0 -i 5 -k AGT 
- -t 2.073049690 -s 3 -d -1 -p ack -e 40 -c 2 -a 0 -i 5 -k AGT
h -t 2.073049690 -s 3 -d -1 -p ack -e 40 -c 2 -a 0 -i 5 -k AGT
+ -t 2.073049690 -s 3 -d 8 -p ack -e 40 -c 2 -a 0 -i 5 -k RTR 
- -t 2.073049690 -s 3 -d 8 -p ack -e 40 -c 2 -a 0 -i 5 -k RTR
h -t 2.073049690 -s 3 -d 8 -p ack -e 40 -c 2 -a 0 -i 5 -k RTR
r -t 2.074876311 -s 1 -d 1 -p ack -e 40 -c 2 -a 0 -i 4 -k AGT
+ -t 2.074876311 -s 1 -d -1 -p tcp -e 1040 -c 2 -a 0 -i 6 -k AGT 
- -t 2.074876311 -s 1 -d -1 -p tcp -e 1040 -c 2 -a 0 -i 6 -k AGT
h -t 2.074876311 -s 1 -d -1 -p tcp -e 1040 -c 2 -a 0 -i 6 -k AGT
+ -t 2.074876311 -s 1 -d -1 -p tcp -e 1040 -c 2 -a 0 -i 7 -k AGT 
- -t 2.074876311 -s 1 -d -1 -p tcp -e 1040 -c 2 -a 0 -i 7 -k AGT
h -t 2.074876311 -s 1 -d -1 -p tcp -e 1040 -c 2 -a 0 -i 7 -k AGT
+ -t 2.074876311 -s 1 -d 8 -p tcp -e 1040 -c 2 -a 0 -i 6 -k RTR 
- -t 2.074876311 -s 1 -d 8 -p tcp -e 1040 -c 2 -a 0 -i 6 -k RTR
h -t 2.074876311 -s 1 -d 8 -p tcp -e 1040 -c 2 -a 0 -i 6 -k RTR
+ -t 2.074876311 -s 1 -d 8 -p tcp -e 1040 -c 2 -a 0 -i 7 -k RTR 
- -t 2.074876311 -s 1 -d 8 -p tcp -e 1040 -c 2 -a 0 -i 7 -k RTR
h -t 2.074876311 -s 1 -d 8 -p tcp -e 1040 -c 2 -a 0 -i 7 -k RTR
+ -t 2.084922254 -s 8 -d 3 -p tcp -e 1040 -c 2 -a 0 -i 6 -k RTR 
- -t 2.084922254 -s 8 -d 3 -p tcp -e 1040 -c 2 -a 0 -i 6 -k RTR
h -t 2.084922254 -s 8 -d 3 -p tcp -e 1040 -c 2 -a 0 -i 6 -k RTR
r -t 2.094848285 -s 3 -d 3 -p tcp -e 1040 -c 2 -a 0 -i 6 -k AGT
+ -t 2.094848285 -s 3 -d -1 -p ack -e 40 -c 2 -a 0 -i 8 -k AGT 
- -t 2.094848285 -s 3 -d -1 -p ack -e 40 -c 2 -a 0 -i 8 -k AGT
h -t 2.094848285 -s 3 -d -1 -p ack -e 40 -c 2 -a 0 -i 8 -k AGT
+ -t 2.094848285 -s 3 -d 8 -p ack -e 40 -c 2 -a 0 -i 8 -k RTR 
- -t 2.094848285 -s 3 -d 8 -p ack -e 40 -c 2 -a 0 -i 8 -k RTR
h -t 2.094848285 -s 3 -d 8 -p ack -e 40 -c 2 -a 0 -i 8 -k RTR
+ -t 2.105099337 -s 8 -d 3 -p tcp -e 1040 -c 2 -a 0 -i 7 -k RTR 
- -t 2.105099337 -s 8 -d 3 -p tcp -e 1040 -c 2 -a 0 -i 7 -k RTR
h -t 2.105099337 -s 8 -d 3 -p tcp -e 1040 -c 2 -a 0 -i 7 -k RTR
+ -t 2.106995829 -s 8 -d 1 -p ack -e 40 -c 2 -a 0 -i 5 -k RTR 
- -t 2.106995829 -s 8 -d 1 -p ack -e 40 -c 2 -a 0 -i 5 -k RTR
h -t 2.106995829 -s 8 -d 1 -p ack -e 40 -c 2 -a 0 -i 5 -k RTR
+ -t 2.108822537 -s 8 -d 1 -p ack -e 40 -c 2 -a 0 -i 8 -k RTR 
- -t 2.108822537 -s 8 -d 1 -p ack -e 40 -c 2 -a 0 -i 8 -k RTR
h -t 2.108822537 -s 8 -d 1 -p ack -e 40 -c 2 -a 0 -i 8 -k RTR
r -t 2.118668567 -s 3 -d 3 -p tcp -e 1040 -c 2 -a 0 -i 7 -k AGT
+ -t 2.118668567 -s 3 -d -1 -p ack -e 40 -c 2 -a 0 -i 9 -k AGT 
- -t 2.118668567 -s 3 -d -1 -p ack -e 40 -c 2 -a 0 -i 9 -k AGT
h -t 2.118668567 -s 3 -d -1 -p ack -e 40 -c 2 -a 0 -i 9 -k AGT
+ -t 2.118668567 -s 3 -d 8 -p ack -e 40 -c 2 -a 0 -i 9 -k RTR 
- -t 2.118668567 -s 3 -d 8 -p ack -e 40 -c 2 -a 0 -i 9 -k RTR
h -t 2.118668567 -s 3 -d 8 -p ack -e 40 -c 2 -a 0 -i 9 -k RTR
+ -t 2.120714598 -s 8 -d 1 -p ack -e 40 -c 2 -a 0 -i 9 -k RTR 
- -t 2.120714598 -s 8 -d 1 -p ack -e 40 -c 2 -a 0 -i 9 -k RTR
h -t 2.120714598 -s 8 -d 1 -p ack -e 40 -c 2 -a 0 -i 9 -k RTR
r -t 2.122620542 -s 1 -d 1 -p ack -e 40 -c 2 -a 0 -i 5 -k AGT
+ -t 2.122620542 -s 1 -d -1 -p tcp -e 1040 -c 2 -a 0 -i 10 -k AGT 
- -t 2.122620542 -s 1 -d -1 -p tcp -e 1040 -c 2 -a 0 -i 10 -k AGT
h -t 2.122620542 -s 1 -d -1 -p tcp -e 1040 -c 2 -a 0 -i 10 -k AGT
+ -t 2.122620542 -s 1 -d -1 -p tcp -e 1040 -c 2 -a 0 -i 11 -k AGT 
- -t 2.122620542 -s 1 -d -1 -p tcp -e 1040 -c 2 -a 0 -i 11 -k AGT
h -t 2.122620542 -s 1 -d -1 -p tcp -e 1040 -c 2 -a 0 -i 11 -k AGT
+ -t 2.122620542 -s 1 -d 8 -p tcp -e 1040 -c 2 -a 0 -i 10 -k RTR 
- -t 2.122620542 -s 1 -d 8 -p tcp -e 1040 -c 2 -a 0 -i 10 -k RTR
h -t 2.122620542 -s 1 -d 8 -p tcp -e 1040 -c 2 -a 0 -i 10 -k RTR
+ -t 2.122620542 -s 1 -d 8 -p tcp -e 1040 -c 2 -a 0 -i 11 -k RTR 
- -t 2.122620542 -s 1 -d 8 -p tcp -e 1040 -c 2 -a 0 -i 11 -k RTR
h -t 2.122620542 -s 1 -d 8 -p tcp -e 1040 -c 2 -a 0 -i 11 -k RTR
r -t 2.124467133 -s 1 -d 1 -p ack -e 40 -c 2 -a 0 -i 8 -k AGT
+ -t 2.124467133 -s 1 -d -1 -p tcp -e 1040 -c 2 -a 0 -i 12 -k AGT 
- -t 2.124467133 -s 1 -d -1 -p tcp -e 1040 -c 2 -a 0 -i 12 -k AGT
h -t 2.124467133 -s 1 -d -1 -p tcp -e 1040 -c 2 -a 0 -i 12 -k AGT
+ -t 2.124467133 -s 1 -d -1 -p tcp -e 1040 -c 2 -a 0 -i 13 -k AGT 
- -t 2.124467133 -s 1 -d -1 -p tcp -e 1040 -c 2 -a 0 -i 13 -k AGT
h -t 2.124467133 -s 1 -d -1 -p tcp -e 1040 -c 2 -a 0 -i 13 -k AGT
+ -t 2.124467133 -s 1 -d 8 -p tcp -e 1040 -c 2 -a 0 -i 12 -k RTR 
- -t 2.124467133 -s 1 -d 8 -p tcp -e 1040 -c 2 -a 0 -i 12 -k RTR
h -t 2.124467133 -s 1 -d 8 -p tcp -e 1040 -c 2 -a 0 -i 12 -k RTR
+ -t 2.124467133 -s 1 -d 8 -p tcp -e 1040 -c 2 -a 0 -i 13 -k RTR 
- -t 2.124467133 -s 1 -d 8 -p tcp -e 1040 -c 2 -a 0 -i 13 -k RTR
h -t 2.124467133 -s 1 -d 8 -p tcp -e 1040 -c 2 -a 0 -i 13 -k RTR
+ -t 2.134493077 -s 8 -d 3 -p tcp -e 1040 -c 2 -a 0 -i 10 -k RTR 
- -t 2.134493077 -s 8 -d 3 -p tcp -e 1040 -c 2 -a 0 -i 10 -k RTR
h -t 2.134493077 -s 8 -d 3 -p tcp -e 1040 -c 2 -a 0 -i 10 -k RTR
+ -t 2.144559668 -s 8 -d 3 -p tcp -e 1040 -c 2 -a 0 -i 11 -k RTR 
- -t 2.144559668 -s 8 -d 3 -p tcp -e 1040 -c 2 -a 0 -i 11 -k RTR
h -t 2.144559668 -s 8 -d 3 -p tcp -e 1040 -c 2 -a 0 -i 11 -k RTR
r -t 2.146445612 -s 1 -d 1 -p ack -e 40 -c 2 -a 0 -i 9 -k AGT
+ -t 2.146445612 -s 1 -d -1 -p tcp -e 1040 -c 2 -a 0 -i 14 -k AGT 
- -t 2.146445612 -s 1 -d -1 -p tcp -e 1040 -c 2 -a 0 -i 14 -k AGT
h -t 2.146445612 -s 1 -d -1 -p tcp -e 1040 -c 2 -a 0 -i 14 -k AGT
+ -t 2.146445612 -s 1 -d -1 -p tcp -e 1040 -c 2 -a 0 -i 15 -k AGT 
- -t 2.146445612 -s 1 -d -1 -p tcp -e 1040 -c 2 -a 0 -i 15 -k AGT
h -t 2.146445612 -s 1 -d -1 -p tcp -e 1040 -c 2 -a 0 -i 15 -k AGT
+ -t 2.146445612 -s 1 -d 8 -p tcp -e 1040 -c 2 -a 0 -i 14 -k RTR 
- -t 2.146445612 -s 1 -d 8 -p tcp -e 1040 -c 2 -a 0 -i 14 -k RTR
h -t 2.146445612 -s 1 -d 8 -p tcp -e 1040 -c 2 -a 0 -i 14 -k RTR
+ -t 2.146445612 -s 1 -d 8 -p tcp -e 1040 -c 2 -a 0 -i 15 -k RTR 
- -t 2.146445612 -s 1 -d 8 -p tcp -e 1040 -c 2 -a 0 -i 15 -k RTR
h -t 2.146445612 -s 1 -d 8 -p tcp -e 1040 -c 2 -a 0 -i 15 -k RTR
+ -t 2.156351556 -s 8 -d 3 -p tcp -e 1040 -c 2 -a 0 -i 12 -k RTR 
- -t 2.156351556 -s 8 -d 3 -p tcp -e 1040 -c 2 -a 0 -i 12 -k RTR
h -t 2.156351556 -s 8 -d 3 -p tcp -e 1040 -c 2 -a 0 -i 12 -k RTR
+ -t 2.166218147 -s 8 -d 3 -p tcp -e 1040 -c 2 -a 0 -i 13 -k RTR 
- -t 2.166218147 -s 8 -d 3 -p tcp -e 1040 -c 2 -a 0 -i 13 -k RTR
h -t 2.166218147 -s 8 -d 3 -p tcp -e 1040 -c 2 -a 0 -i 13 -k RTR
r -t 2.176224178 -s 3 -d 3 -p tcp -e 1040 -c 2 -a 0 -i 10 -k AGT
+ -t 2.176224178 -s 3 -d -1 -p ack -e 40 -c 2 -a 0 -i 16 -k AGT 
- -t 2.176224178 -s 3 -d -1 -p ack -e 40 -c 2 -a 0 -i 16 -k AGT
h -t 2.176224178 -s 3 -d -1 -p ack -e 40 -c 2 -a 0 -i 16 -k AGT
+ -t 2.176224178 -s 3 -d 8 -p ack -e 40 -c 2 -a 0 -i 16 -k RTR 
- -t 2.176224178 -s 3 -d 8 -p ack -e 40 -c 2 -a 0 -i 16 -k RTR
h -t 2.176224178 -s 3 -d 8 -p ack -e 40 -c 2 -a 0 -i 16 -k RTR
+ -t 2.178170209 -s 8 -d 1 -p ack -e 40 -c 2 -a 0 -i 16 -k RTR 
- -t 2.178170209 -s 8 -d 1 -p ack -e 40 -c 2 -a 0 -i 16 -k RTR
h -t 2.178170209 -s 8 -d 1 -p ack -e 40 -c 2 -a 0 -i 16 -k RTR
r -t 2.188096239 -s 3 -d 3 -p tcp -e 1040 -c 2 -a 0 -i 11 -k AGT
+ -t 2.188096239 -s 3 -d -1 -p ack -e 40 -c 2 -a 0 -i 17 -k AGT 
- -t 2.188096239 -s 3 -d -1 -p ack -e 40 -c 2 -a 0 -i 17 -k AGT
h -t 2.188096239 -s 3 -d -1 -p ack -e 40 -c 2 -a 0 -i 17 -k AGT
+ -t 2.188096239 -s 3 -d 8 -p ack -e 40 -c 2 -a 0 -i 17 -k RTR 
- -t 2.188096239 -s 3 -d 8 -p ack -e 40 -c 2 -a 0 -i 17 -k RTR
h -t 2.188096239 -s 3 -d 8 -p ack -e 40 -c 2 -a 0 -i 17 -k RTR
+ -t 2.190002270 -s 8 -d 1 -p ack -e 40 -c 2 -a 0 -i 17 -k RTR 
- -t 2.190002270 -s 8 -d 1 -p ack -e 40 -c 2 -a 0 -i 17 -k RTR
h -t 2.190002270 -s 8 -d 1 -p ack -e 40 -c 2 -a 0 -i 17 -k RTR
r -t 2.200008301 -s 3 -d 3 -p tcp -e 1040 -c 2 -a 0 -i 12 -k AGT
+ -t 2.200008301 -s 3 -d -1 -p ack -e 40 -c 2 -a 0 -i 18 -k AGT 
- -t 2.200008301 -s 3 -d -1 -p ack -e 40 -c 2 -a 0 -i 18 -k AGT
h -t 2.200008301 -s 3 -d -1 -p ack -e 40 -c 2 -a 0 -i 18 -k AGT
+ -t 2.200008301 -s 3 -d 8 -p ack -e 40 -c 2 -a 0 -i 18 -k RTR 
- -t 2.200008301 -s 3 -d 8 -p ack -e 40 -c 2 -a 0 -i 18 -k RTR
h -t 2.200008301 -s 3 -d 8 -p ack -e 40 -c 2 -a 0 -i 18 -k RTR
+ -t 2.201854332 -s 8 -d 1 -p ack -e 40 -c 2 -a 0 -i 18 -k RTR 
- -t 2.201854332 -s 8 -d 1 -p ack -e 40 -c 2 -a 0 -i 18 -k RTR
h -t 2.201854332 -s 8 -d 1 -p ack -e 40 -c 2 -a 0 -i 18 -k RTR
r -t 2.211720362 -s 3 -d 3 -p tcp -e 1040 -c 2 -a 0 -i 13 -k AGT
+ -t 2.211720362 -s 3 -d -1 -p ack -e 40 -c 2 -a 0 -i 19 -k AGT 
- -t 2.211720362 -s 3 -d -1 -p ack -e 40 -c 2 -a 0 -i 19 -k AGT
h -t 2.211720362 -s 3 -d -1 -p ack -e 40 -c 2 -a 0 -i 19 -k AGT
+ -t 2.211720362 -s 3 -d 8 -p ack -e 40 -c 2 -a 0 -i 19 -k RTR 
- -t 2.211720362 -s 3 -d 8 -p ack -e 40 -c 2 -a 0 -i 19 -k RTR
h -t 2.211720362 -s 3 -d 8 -p ack -e 40 -c 2 -a 0 -i 19 -k RTR
+ -t 2.213846393 -s 8 -d 1 -p ack -e 40 -c 2 -a 0 -i 19 -k RTR 
- -t 2.213846393 -s 8 -d 1 -p ack -e 40 -c 2 -a 0 -i 19 -k RTR
h -t 2.213846393 -s 8 -d 1 -p ack -e 40 -c 2 -a 0 -i 19 -k RTR
+ -t 2.223842769 -s 8 -d 3 -p tcp -e 1040 -c 2 -a 0 -i 14 -k RTR 
- -t 2.223842769 -s 8 -d 3 -p tcp -e 1040 -c 2 -a 0 -i 14 -k RTR
h -t 2.223842769 -s 8 -d 3 -p tcp -e 1040 -c 2 -a 0 -i 14 -k RTR
+ -t 2.233729360 -s 8 -d 3 -p tcp -e 1040 -c 2 -a 0 -i 15 -k RTR 
- -t 2.233729360 -s 8 -d 3 -p tcp -e 1040 -c 2 -a 0 -i 15 -k RTR
h -t 2.233729360 -s 8 -d 3 -p tcp -e 1040 -c 2 -a 0 -i 15 -k RTR
r -t 2.235635304 -s 1 -d 1 -p ack -e 40 -c 2 -a 0 -i 16 -k AGT
+ -t 2.235635304 -s 1 -d -1 -p tcp -e 1040 -c 2 -a 0 -i 20 -k AGT 
- -t 2.235635304 -s 1 -d -1 -p tcp -e 1040 -c 2 -a 0 -i 20 -k AGT
h -t 2.235635304 -s 1 -d -1 -p tcp -e 1040 -c 2 -a 0 -i 20 -k AGT
+ -t 2.235635304 -s 1 -d -1 -p tcp -e 1040 -c 2 -a 0 -i 21 -k AGT 
- -t 2.235635304 -s 1 -d -1 -p tcp -e 1040 -c 2 -a 0 -i 21 -k AGT
h -t 2.235635304 -s 1 -d -1 -p tcp -e 1040 -c 2 -a 0 -i 21 -k AGT
+ -t 2.235635304 -s 1 -d 8 -p tcp -e 1040 -c 2 -a 0 -i 20 -k RTR 
- -t 2.235635304 -s 1 -d 8 -p tcp -e 1040 -c 2 -a 0 -i 20 -k RTR
h -t 2.235635304 -s 1 -d 8 -p tcp -e 1040 -c 2 -a 0 -i 20 -k RTR
+ -t 2.235635304 -s 1 -d 8 -p tcp -e 1040 -c 2 -a 0 -i 21 -k RTR 
- -t 2.235635304 -s 1 -d 8 -p tcp -e 1040 -c 2 -a 0 -i 21 -k RTR
h -t 2.235635304 -s 1 -d 8 -p tcp -e 1040 -c 2 -a 0 -i 21 -k RTR
r -t 2.237581895 -s 1 -d 1 -p ack -e 40 -c 2 -a 0 -i 17 -k AGT
+ -t 2.237581895 -s 1 -d -1 -p tcp -e 1040 -c 2 -a 0 -i 22 -k AGT 
- -t 2.237581895 -s 1 -d -1 -p tcp -e 1040 -c 2 -a 0 -i 22 -k AGT
h -t 2.237581895 -s 1 -d -1 -p tcp -e 1040 -c 2 -a 0 -i 22 -k AGT
+ -t 2.237581895 -s 1 -d -1 -p tcp -e 1040 -c 2 -a 0 -i 23 -k AGT 
- -t 2.237581895 -s 1 -d -1 -p tcp -e 1040 -c 2 -a 0 -i 23 -k AGT
h -t 2.237581895 -s 1 -d -1 -p tcp -e 1040 -c 2 -a 0 -i 23 -k AGT
+ -t 2.237581895 -s 1 -d 8 -p tcp -e 1040 -c 2 -a 0 -i 22 -k RTR 
- -t 2.237581895 -s 1 -d 8 -p tcp -e 1040 -c 2 -a 0 -i 22 -k RTR
h -t 2.237581895 -s 1 -d 8 -p tcp -e 1040 -c 2 -a 0 -i 22 -k RTR
+ -t 2.237581895 -s 1 -d 8 -p tcp -e 1040 -c 2 -a 0 -i 23 -k RTR 
- -t 2.237581895 -s 1 -d 8 -p tcp -e 1040 -c 2 -a 0 -i 23 -k RTR
h -t 2.237581895 -s 1 -d 8 -p tcp -e 1040 -c 2 -a 0 -i 23 -k RTR
+ -t 2.247787839 -s 8 -d 3 -p tcp -e 1040 -c 2 -a 0 -i 20 -k RTR 
- -t 2.247787839 -s 8 -d 3 -p tcp -e 1040 -c 2 -a 0 -i 20 -k RTR
h -t 2.247787839 -s 8 -d 3 -p tcp -e 1040 -c 2 -a 0 -i 20 -k RTR
r -t 2.249833783 -s 1 -d 1 -p ack -e 40 -c 2 -a 0 -i 18 -k AGT
+ -t 2.249833783 -s 1 -d -1 -p tcp -e 1040 -c 2 -a 0 -i 24 -k AGT 
- -t 2.249833783 -s 1 -d -1 -p tcp -e 1040 -c 2 -a 0 -i 24 -k AGT
h -t 2.249833783 -s 1 -d -1 -p tcp -e 1040 -c 2 -a 0 -i 24 -k AGT
+ -t 2.249833783 -s 1 -d -1 -p tcp -e 1040 -c 2 -a 0 -i 25 -k AGT 
- -t 2.249833783 -s 1 -d -1 -p tcp -e 1040 -c 2 -a 0 -i 25 -k AGT
h -t 2.249833783 -s 1 -d -1 -p tcp -e 1040 -c 2 -a 0 -i 25 -k AGT
+ -t 2.249833783 -s 1 -d 8 -p tcp -e 1040 -c 2 -a 0 -i 24 -k RTR 
- -t 2.249833783 -s 1 -d 8 -p tcp -e 1040 -c 2 -a 0 -i 24 -k RTR
h -t 2.249833783 -s 1 -d 8 -p tcp -e 1040 -c 2 -a 0 -i 24 -k RTR
+ -t 2.249833783 -s 1 -d 8 -p tcp -e 1040 -c 2 -a 0 -i 25 -k RTR 
- -t 2.249833783 -s 1 -d 8 -p tcp -e 1040 -c 2 -a 0 -i 25 -k RTR
h -t 2.249833783 -s 1 -d 8 -p tcp -e 1040 -c 2 -a 0 -i 25 -k RTR
+ -t 2.259879726 -s 8 -d 3 -p tcp -e 1040 -c 2 -a 0 -i 21 -k RTR 
- -t 2.259879726 -s 8 -d 3 -p tcp -e 1040 -c 2 -a 0 -i 21 -k RTR
h -t 2.259879726 -s 8 -d 3 -p tcp -e 1040 -c 2 -a 0 -i 21 -k RTR
+ -t 2.270006318 -s 8 -d 3 -p tcp -e 1040 -c 2 -a 0 -i 22 -k RTR 
- -t 2.270006318 -s 8 -d 3 -p tcp -e 1040 -c 2 -a 0 -i 22 -k RTR
h -t 2.270006318 -s 8 -d 3 -p tcp -e 1040 -c 2 -a 0 -i 22 -k RTR
r -t 2.271852261 -s 1 -d 1 -p ack -e 40 -c 2 -a 0 -i 19 -k AGT
+ -t 2.271852261 -s 1 -d -1 -p tcp -e 1040 -c 2 -a 0 -i 26 -k AGT 
- -t 2.271852261 -s 1 -d -1 -p tcp -e 1040 -c 2 -a 0 -i 26 -k AGT
h -t 2.271852261 -s 1 -d -1 -p tcp -e 1040 -c 2 -a 0 -i 26 -k AGT
+ -t 2.271852261 -s 1 -d -1 -p tcp -e 1040 -c 2 -a 0 -i 27 -k AGT 
- -t 2.271852261 -s 1 -d -1 -p tcp -e 1040 -c 2 -a 0 -i 27 -k AGT
h -t 2.271852261 -s 1 -d -1 -p tcp -e 1040 -c 2 -a 0 -i 27 -k AGT
+ -t 2.271852261 -s 1 -d 8 -p tcp -e 1040 -c 2 -a 0 -i 26 -k RTR 
- -t 2.271852261 -s 1 -d 8 -p tcp -e 1040 -c 2 -a 0 -i 26 -k RTR
h -t 2.271852261 -s 1 -d 8 -p tcp -e 1040 -c 2 -a 0 -i 26 -k RTR
+ -t 2.271852261 -s 1 -d 8 -p tcp -e 1040 -c 2 -a 0 -i 27 -k RTR 
- -t 2.271852261 -s 1 -d 8 -p tcp -e 1040 -c 2 -a 0 -i 27 -k RTR
h -t 2.271852261 -s 1 -d 8 -p tcp -e 1040 -c 2 -a 0 -i 27 -k RTR
+ -t 2.281958205 -s 8 -d 3 -p tcp -e 1040 -c 2 -a 0 -i 23 -k RTR 
- -t 2.281958205 -s 8 -d 3 -p tcp -e 1040 -c 2 -a 0 -i 23 -k RTR
h -t 2.281958205 -s 8 -d 3 -p tcp -e 1040 -c 2 -a 0 -i 23 -k RTR
r -t 2.291804236 -s 3 -d 3 -p tcp -e 1040 -c 2 -a 0 -i 14 -k AGT
+ -t 2.291804236 -s 3 -d -1 -p ack -e 40 -c 2 -a 0 -i 28 -k AGT 
- -t 2.291804236 -s 3 -d -1 -p ack -e 40 -c 2 -a 0 -i 28 -k AGT
h -t 2.291804236 -s 3 -d -1 -p ack -e 40 -c 2 -a 0 -i 28 -k AGT
+ -t 2.291804236 -s 3 -d 8 -p ack -e 40 -c 2 -a 0 -i 28 -k RTR 
- -t 2.291804236 -s 3 -d 8 -p ack -e 40 -c 2 -a 0 -i 28 -k RTR
h -t 2.291804236 -s 3 -d 8 -p ack -e 40 -c 2 -a 0 -i 28 -k RTR
+ -t 2.293670266 -s 8 -d 1 -p ack -e 40 -c 2 -a 0 -i 28 -k RTR 
- -t 2.293670266 -s 8 -d 1 -p ack -e 40 -c 2 -a 0 -i 28 -k RTR
h -t 2.293670266 -s 8 -d 1 -p ack -e 40 -c 2 -a 0 -i 28 -k RTR
+ -t 2.303866642 -s 8 -d 3 -p tcp -e 1040 -c 2 -a 0 -i 24 -k RTR 
- -t 2.303866642 -s 8 -d 3 -p tcp -e 1040 -c 2 -a 0 -i 24 -k RTR
h -t 2.303866642 -s 8 -d 3 -p tcp -e 1040 -c 2 -a 0 -i 24 -k RTR
r -t 2.315439968 -s 3 -d 3 -p tcp -e 1040 -c 2 -a 0 -i 15 -k AGT
+ -t 2.315439968 -s 3 -d -1 -p ack -e 40 -c 2 -a 0 -i 29 -k AGT 
- -t 2.315439968 -s 3 -d -1 -p ack -e 40 -c 2 -a 0 -i 29 -k AGT
h -t 2.315439968 -s 3 -d -1 -p ack -e 40 -c 2 -a 0 -i 29 -k AGT
+ -t 2.315439968 -s 3 -d 8 -p ack -e 40 -c 2 -a 0 -i 29 -k RTR 
- -t 2.315439968 -s 3 -d 8 -p ack -e 40 -c 2 -a 0 -i 29 -k RTR
h -t 2.315439968 -s 3 -d 8 -p ack -e 40 -c 2 -a 0 -i 29 -k RTR
r -t 2.325386676 -s 3 -d 3 -p tcp -e 1040 -c 2 -a 0 -i 20 -k AGT
+ -t 2.325386676 -s 3 -d -1 -p ack -e 40 -c 2 -a 0 -i 30 -k AGT 
- -t 2.325386676 -s 3 -d -1 -p ack -e 40 -c 2 -a 0 -i 30 -k AGT
h -t 2.325386676 -s 3 -d -1 -p ack -e 40 -c 2 -a 0 -i 30 -k AGT
+ -t 2.325386676 -s 3 -d 8 -p ack -e 40 -c 2 -a 0 -i 30 -k RTR 
- -t 2.325386676 -s 3 -d 8 -p ack -e 40 -c 2 -a 0 -i 30 -k RTR
h -t 2.325386676 -s 3 -d 8 -p ack -e 40 -c 2 -a 0 -i 30 -k RTR
r -t 2.335373384 -s 3 -d 3 -p tcp -e 1040 -c 2 -a 0 -i 21 -k AGT
+ -t 2.335373384 -s 3 -d -1 -p ack -e 40 -c 2 -a 0 -i 31 -k AGT 
- -t 2.335373384 -s 3 -d -1 -p ack -e 40 -c 2 -a 0 -i 31 -k AGT
h -t 2.335373384 -s 3 -d -1 -p ack -e 40 -c 2 -a 0 -i 31 -k AGT
+ -t 2.335373384 -s 3 -d 8 -p ack -e 40 -c 2 -a 0 -i 31 -k RTR 
- -t 2.335373384 -s 3 -d 8 -p ack -e 40 -c 2 -a 0 -i 31 -k RTR
h -t 2.335373384 -s 3 -d 8 -p ack -e 40 -c 2 -a 0 -i 31 -k RTR
+ -t 2.337319414 -s 8 -d 1 -p ack -e 40 -c 2 -a 0 -i 29 -k RTR 
- -t 2.337319414 -s 8 -d 1 -p ack -e 40 -c 2 -a 0 -i 29 -k RTR
h -t 2.337319414 -s 8 -d 1 -p ack -e 40 -c 2 -a 0 -i 29 -k RTR
+ -t 2.339146122 -s 8 -d 1 -p ack -e 40 -c 2 -a 0 -i 30 -k RTR 
- -t 2.339146122 -s 8 -d 1 -p ack -e 40 -c 2 -a 0 -i 30 -k RTR
h -t 2.339146122 -s 8 -d 1 -p ack -e 40 -c 2 -a 0 -i 30 -k RTR
r -t 2.349092153 -s 3 -d 3 -p tcp -e 1040 -c 2 -a 0 -i 22 -k AGT
+ -t 2.349092153 -s 3 -d -1 -p ack -e 40 -c 2 -a 0 -i 32 -k AGT 
- -t 2.349092153 -s 3 -d -1 -p ack -e 40 -c 2 -a 0 -i 32 -k AGT
h -t 2.349092153 -s 3 -d -1 -p ack -e 40 -c 2 -a 0 -i 32 -k AGT
+ -t 2.349092153 -s 3 -d 8 -p ack -e 40 -c 2 -a 0 -i 32 -k RTR 
- -t 2.349092153 -s 3 -d 8 -p ack -e 40 -c 2 -a 0 -i 32 -k RTR
h -t 2.349092153 -s 3 -d 8 -p ack -e 40 -c 2 -a 0 -i 32 -k RTR
+ -t 2.350958183 -s 8 -d 1 -p ack -e 40 -c 2 -a 0 -i 31 -k RTR 
- -t 2.350958183 -s 8 -d 1 -p ack -e 40 -c 2 -a 0 -i 31 -k RTR
h -t 2.350958183 -s 8 -d 1 -p ack -e 40 -c 2 -a 0 -i 31 -k RTR
+ -t 2.361094559 -s 8 -d 3 -p tcp -e 1040 -c 2 -a 0 -i 25 -k RTR 
- -t 2.361094559 -s 8 -d 3 -p tcp -e 1040 -c 2 -a 0 -i 25 -k RTR
h -t 2.361094559 -s 8 -d 3 -p tcp -e 1040 -c 2 -a 0 -i 25 -k RTR
r -t 2.370940590 -s 3 -d 3 -p tcp -e 1040 -c 2 -a 0 -i 23 -k AGT
+ -t 2.370940590 -s 3 -d -1 -p ack -e 40 -c 2 -a 0 -i 33 -k AGT 
- -t 2.370940590 -s 3 -d -1 -p ack -e 40 -c 2 -a 0 -i 33 -k AGT
h -t 2.370940590 -s 3 -d -1 -p ack -e 40 -c 2 -a 0 -i 33 -k AGT
+ -t 2.370940590 -s 3 -d 8 -p ack -e 40 -c 2 -a 0 -i 33 -k RTR 
- -t 2.370940590 -s 3 -d 8 -p ack -e 40 -c 2 -a 0 -i 33 -k RTR
h -t 2.370940590 -s 3 -d 8 -p ack -e 40 -c 2 -a 0 -i 33 -k RTR
+ -t 2.372786620 -s 8 -d 1 -p ack -e 40 -c 2 -a 0 -i 32 -k RTR 
- -t 2.372786620 -s 8 -d 1 -p ack -e 40 -c 2 -a 0 -i 32 -k RTR
h -t 2.372786620 -s 8 -d 1 -p ack -e 40 -c 2 -a 0 -i 32 -k RTR
+ -t 2.374933328 -s 8 -d 1 -p ack -e 40 -c 2 -a 0 -i 33 -k RTR 
- -t 2.374933328 -s 8 -d 1 -p ack -e 40 -c 2 -a 0 -i 33 -k RTR
h -t 2.374933328 -s 8 -d 1 -p ack -e 40 -c 2 -a 0 -i 33 -k RTR
r -t 2.376919272 -s 1 -d 1 -p ack -e 40 -c 2 -a 0 -i 28 -k AGT
+ -t 2.376919272 -s 1 -d -1 -p tcp -e 1040 -c 2 -a 0 -i 34 -k AGT 
- -t 2.376919272 -s 1 -d -1 -p tcp -e 1040 -c 2 -a 0 -i 34 -k AGT
h -t 2.376919272 -s 1 -d -1 -p tcp -e 1040 -c 2 -a 0 -i 34 -k AGT
+ -t 2.376919272 -s 1 -d -1 -p tcp -e 1040 -c 2 -a 0 -i 35 -k AGT 
- -t 2.376919272 -s 1 -d -1 -p tcp -e 1040 -c 2 -a 0 -i 35 -k AGT
h -t 2.376919272 -s 1 -d -1 -p tcp -e 1040 -c 2 -a 0 -i 35 -k AGT
+ -t 2.376919272 -s 1 -d 8 -p tcp -e 1040 -c 2 -a 0 -i 34 -k RTR 
- -t 2.376919272 -s 1 -d 8 -p tcp -e 1040 -c 2 -a 0 -i 34 -k RTR
h -t 2.376919272 -s 1 -d 8 -p tcp -e 1040 -c 2 -a 0 -i 34 -k RTR
+ -t 2.376919272 -s 1 -d 8 -p tcp -e 1040 -c 2 -a 0 -i 35 -k RTR 
- -t 2.376919272 -s 1 -d 8 -p tcp -e 1040 -c 2 -a 0 -i 35 -k RTR
h -t 2.376919272 -s 1 -d 8 -p tcp -e 1040 -c 2 -a 0 -i 35 -k RTR
r -t 2.386765950 -s 3 -d 3 -p tcp -e 1040 -c 2 -a 0 -i 24 -k AGT
+ -t 2.386765950 -s 3 -d -1 -p ack -e 40 -c 2 -a 0 -i 36 -k AGT 
- -t 2.386765950 -s 3 -d -1 -p ack -e 40 -c 2 -a 0 -i 36 -k AGT
h -t 2.386765950 -s 3 -d -1 -p ack -e 40 -c 2 -a 0 -i 36 -k AGT
+ -t 2.386765950 -s 3 -d 8 -p ack -e 40 -c 2 -a 0 -i 36 -k RTR 
- -t 2.386765950 -s 3 -d 8 -p ack -e 40 -c 2 -a 0 -i 36 -k RTR
h -t 2.386765950 -s 3 -d 8 -p ack -e 40 -c 2 -a 0 -i 36 -k RTR
r -t 2.388692571 -s 1 -d 1 -p ack -e 40 -c 2 -a 0 -i 29 -k AGT
+ -t 2.388692571 -s 1 -d -1 -p tcp -e 1040 -c 2 -a 0 -i 37 -k AGT 
- -t 2.388692571 -s 1 -d -1 -p tcp -e 1040 -c 2 -a 0 -i 37 -k AGT
h -t 2.388692571 -s 1 -d -1 -p tcp -e 1040 -c 2 -a 0 -i 37 -k AGT
+ -t 2.388692571 -s 1 -d -1 -p tcp -e 1040 -c 2 -a 0 -i 38 -k AGT 
- -t 2.388692571 -s 1 -d -1 -p tcp -e 1040 -c 2 -a 0 -i 38 -k AGT
h -t 2.388692571 -s 1 -d -1 -p tcp -e 1040 -c 2 -a 0 -i 38 -k AGT
+ -t 2.388692571 -s 1 -d 8 -p tcp -e 1040 -c 2 -a 0 -i 37 -k RTR 
- -t 2.388692571 -s 1 -d 8 -p tcp -e 1040 -c 2 -a 0 -i 37 -k RTR
h -t 2.388692571 -s 1 -d 8 -p tcp -e 1040 -c 2 -a 0 -i 37 -k RTR